<UPF version="2.0.1">
<PP_INFO>
Generated by new atomic code, or converted to UPF format
Author:
Generation date:
Pseudopotential type: NC
Element: H
Functional: SLA  PW   PBE  PBE
Suggested minimum cutoff for wavefunctions:   0. Ry
Suggested minimum cutoff for charge density:   0. Ry
The Pseudo was generated with a Non-Relativistic Calculation
L component and cutoff radius for Local Potential:  0   0.0000
Valence configuration:
nl pn  l   occ       Rcut    Rcut US       E pseu
0S  0  0  1.00      0.000      0.000     0.000000
Generation configuration: not available.
</PP_INFO>
<!--
END OF HUMAN READABLE SECTION
-->
<PP_HEADER generated="Generated by new atomic code, or converted to UPF format" author="" date="" comment="" element="H " pseudo_type="NC" relativistic="no" is_ultrasoft="false" is_paw="false" is_coulomb="false" has_so="false" has_wfc="false" has_gipaw="false" paw_as_gipaw="false" core_correction="false" functional="SLA  PW   PBE  PBE" z_valence="1.000000000000e0" total_psenergy="0.000000000000e0" wfc_cutoff="0.000000000000e0" rho_cutoff="0.000000000000e0" l_max="-1" l_max_rho="0" l_local="0" mesh_size="325" number_of_wfc="1" number_of_proj="0"/>
<PP_MESH dx="2.500000000001e-2" mesh="325" xmin="-4.000000000002e0" rmax="6.034028759740e1" zmesh="1.000000000000e0">
<PP_R>
1.831563888870000e-2 1.877930149470000e-2 1.925470177540000e-2 1.974213687150000e-2
2.024191144580000e-2 2.075433787370000e-2 2.127973643840000e-2 2.181843553100000e-2
2.237077185620000e-2 2.293709064190000e-2 2.351774585600000e-2 2.411310042680000e-2
2.472352647030000e-2 2.534940552270000e-2 2.599112877880000e-2 2.664909733640000e-2
2.732372244730001e-2 2.801542577420000e-2 2.872463965420000e-2 2.945180736910000e-2
3.019738342230000e-2 3.096183382320000e-2 3.174563637810000e-2 3.254928098910001e-2
3.337326996030000e-2 3.421811831169999e-2 3.508435410080000e-2 3.597251875340000e-2
3.688316740120000e-2 3.781686922930000e-2 3.877420783170000e-2 3.975578157620000e-2
4.076220397839999e-2 4.179410408490000e-2 4.285212686700000e-2 4.393693362340001e-2
4.504920239360001e-2 4.618962838170000e-2 4.735892439110001e-2 4.855782127000000e-2
4.978706836790000e-2 5.104743400420000e-2 5.233970594840000e-2 5.366469191270000e-2
5.502322005640000e-2 5.641613950380000e-2 5.784432087480001e-2 5.930865682939999e-2
6.081006262520000e-2 6.234947668970000e-2 6.392786120670001e-2 6.554620271800000e-2
6.720551273970000e-2 6.890682839469999e-2 7.065121306040000e-2 7.243975703430000e-2
7.427357821430000e-2 7.615382279860000e-2 7.808166600120002e-2 8.005831278670000e-2
8.208499862389999e-2 8.416299025730000e-2 8.629358649940000e-2 8.847811904209999e-2
9.071795328940000e-2 9.301448921070000e-2 9.536916221550001e-2 9.778344405140000e-2
1.002588437230000e-1 1.027969084350000e-1 1.053992245620000e-1 1.080674186350000e-1
1.108031583620000e-1 1.136081536710000e-1 1.164841577730000e-1 1.194329682670000e-1
1.224564282530000e-1 1.255564274930000e-1 1.287349035880000e-1 1.319938431880000e-1
1.353352832370000e-1 1.387613122430000e-1 1.422740715870000e-1 1.458757568560000e-1
1.495686192230000e-1 1.533549668450000e-1 1.572371663140000e-1 1.612176441300000e-1
1.652988882220000e-1 1.694834494990000e-1 1.737739434500000e-1 1.781730517730000e-1
1.826835240530000e-1 1.873081794820000e-1 1.920499086210000e-1 1.969116752040000e-1
2.018965179950000e-1 2.070075526810000e-1 2.122479738270000e-1 2.176210568650000e-1
2.231301601480000e-1 2.287787270450000e-1 2.345702880940000e-1 2.405084632080000e-1
2.465969639420000e-1 2.528395958050000e-1 2.592402606460000e-1 2.658029590890000e-1
2.725317930340000e-1 2.794309682210000e-1 2.865047968600000e-1 2.937577003240000e-1
3.011942119120000e-1 3.088189796880000e-1 3.166367693790000e-1 3.246524673580000e-1
3.328710836980000e-1 3.412977553010000e-1 3.499377491110000e-1 3.587964654060000e-1
3.678794411710000e-1 3.771923535630000e-1 3.867410234550000e-1 3.965314190750000e-1
4.065696597410000e-1 4.168620196790000e-1 4.274149319490000e-1 4.382349924650000e-1
4.493289641170001e-1 4.607037809990000e-1 4.723665527410000e-1 4.843245689550000e-1
4.965853037910001e-1 5.091564206080000e-1 5.220457767609999e-1 5.352614285190000e-1
5.488116360939999e-1 5.627048688069999e-1 5.769498103800000e-1 5.915553643670000e-1
6.065306597130000e-1 6.218850564650000e-1 6.376281516220001e-1 6.537697851299999e-1
6.703200460360001e-1 6.872892787910000e-1 7.046880897190000e-1 7.225273536420000e-1
7.408182206819999e-1 7.595721232250000e-1 7.788007830710000e-1 7.985162187590000e-1
8.187307530780000e-1 8.394570207690000e-1 8.607079764249999e-1 8.824969025850001e-1
9.048374180360000e-1 9.277434863289999e-1 9.512294245010001e-1 9.753099120280000e-1
1.000000000000000e0 1.025315120520000e0 1.051271096380000e0 1.077884150880000e0
1.105170918080000e0 1.133148453070000e0 1.161834242730000e0 1.191246216610000e0
1.221402758160000e0 1.252322716190000e0 1.284025416690000e0 1.316530674870000e0
1.349858807580000e0 1.384030645980000e0 1.419067548590000e0 1.454991414620000e0
1.491824697640000e0 1.529590419660000e0 1.568312185490000e0 1.608014197490000e0
1.648721270700000e0 1.690458848380000e0 1.733253017870000e0 1.777130526910000e0
1.822118800390000e0 1.868245957430000e0 1.915540829010000e0 1.964032975970000e0
2.013752707470000e0 2.064731099970000e0 2.117000016610000e0 2.170592127180000e0
2.225540928490000e0 2.281880765330000e0 2.339646851930000e0 2.398875293970000e0
2.459603111160000e0 2.521868260360000e0 2.585709659320000e0 2.651167210980000e0
2.718281828460000e0 2.787095460570000e0 2.857651118060000e0 2.929992900530000e0
3.004166023950000e0 3.080216848920000e0 3.158192909690000e0 3.238142943840000e0
3.320116922740000e0 3.404166082790000e0 3.490342957460000e0 3.578701410100000e0
3.669296667620000e0 3.762185355000000e0 3.857425530700000e0 3.955076722920000e0
4.055199966840000e0 4.157857842760000e0 4.263114515170000e0 4.371035772930000e0
4.481689070340000e0 4.595143569310000e0 4.711470182590000e0 4.830741618110000e0
4.953032424400000e0 5.078419037180000e0 5.206979827180000e0 5.338795149070000e0
5.473947391730000e0 5.612521029690000e0 5.754602676010000e0 5.900281136320000e0
6.049647464410000e0 6.202795019100000e0 6.359819522600000e0 6.520819120330000e0
6.685894442280000e0 6.855148665900000e0 7.028687580590000e0 7.206619653820000e0
7.389056098930000e0 7.576110944640000e0 7.767901106310000e0 7.964546459030000e0
8.166169912570000e0 8.372897488130000e0 8.584858397180000e0 8.802185122190000e0
9.025013499430001e0 9.253482803910000e0 9.487735836360001e0 9.727919012559999e0
9.974182454810000e0 1.022668008580000e1 1.048556972470000e1 1.075101318610000e1
1.102317638060000e1 1.130222941930000e1 1.158834671920000e1 1.188170711310000e1
1.218249396070000e1 1.249089526360000e1 1.280710378270000e1 1.313131715850000e1
1.346373803500000e1 1.380457418610000e1 1.415403864540000e1 1.451234983960000e1
1.487973172490000e1 1.525641392690000e1 1.564263188420000e1 1.603862699570000e1
1.644464677110000e1 1.686094498610000e1 1.728778184060000e1 1.772542412150000e1
1.817414536940000e1 1.863422604990000e1 1.910595372820000e1 1.958962324960000e1
2.008553692320000e1 2.059400471120000e1 2.111534442250000e1 2.164988191150000e1
2.219795128140000e1 2.275989509350000e1 2.333606458090000e1 2.392681986840000e1
2.453253019710000e1 2.515357415580000e1 2.579033991720000e1 2.644322548060000e1
2.711263892070000e1 2.779899864270000e1 2.850273364380000e1 2.922428378120000e1
2.996410004740000e1 3.072264485150000e1 3.150039230870000e1 3.229782853660000e1
3.311545195870000e1 3.395377361620000e1 3.481331748760001e1 3.569462081570000e1
3.659823444370000e1 3.752472315960000e1 3.847466604900000e1 3.944865685720000e1
4.044730436010000e1 4.147123274480000e1 4.252108200010000e1 4.359750831570000e1
4.470118449330000e1 4.583280036630000e1 4.699306323160000e1 4.818269829110001e1
4.940244910550000e1 5.065307805880000e1 5.193536683480001e1 5.325011690570000e1
5.459815003310000e1 5.598030878160000e1 5.739745704540001e1 5.885048058830001e1
6.034028759740000e1
</PP_R>
<PP_RAB>
4.578909722180000e-4 4.694825373670001e-4 4.813675443850000e-4 4.935534217870000e-4
5.060477861450002e-4 5.188584468420000e-4 5.319934109590001e-4 5.454608882759999e-4
5.592692964040000e-4 5.734272660480000e-4 5.879436463999999e-4 6.028275106700000e-4
6.180881617580001e-4 6.337351380680001e-4 6.497782194689999e-4 6.662274334090000e-4
6.830930611819999e-4 7.003856443559999e-4 7.181159913559999e-4 7.362951842280001e-4
7.549345855580000e-4 7.740458455790000e-4 7.936409094520000e-4 8.137320247280000e-4
8.343317490080000e-4 8.554529577920000e-4 8.771088525210001e-4 8.993129688360000e-4
9.220791850310000e-4 9.454217307330001e-4 9.693551957930000e-4 9.938945394060001e-4
1.019055099460000e-3 1.044852602120000e-3 1.071303171680000e-3 1.098423340590000e-3
1.126230059840000e-3 1.154740709540000e-3 1.183973109780000e-3 1.213945531750000e-3
1.244676709200000e-3 1.276185850100000e-3 1.308492648710000e-3 1.341617297820000e-3
1.375580501410000e-3 1.410403487590000e-3 1.446108021870000e-3 1.482716420740000e-3
1.520251565630000e-3 1.558736917240000e-3 1.598196530170000e-3 1.638655067950000e-3
1.680137818490000e-3 1.722670709870000e-3 1.766280326510000e-3 1.810993925860000e-3
1.856839455360000e-3 1.903845569970000e-3 1.952041650030000e-3 2.001457819670000e-3
2.052124965600000e-3 2.104074756430000e-3 2.157339662480000e-3 2.211952976050000e-3
2.267948832240000e-3 2.325362230270000e-3 2.384229055390000e-3 2.444586101280000e-3
2.506471093070000e-3 2.569922710880000e-3 2.634980614050000e-3 2.701685465870000e-3
2.770078959060000e-3 2.840203841770000e-3 2.912103944340000e-3 2.985824206670000e-3
3.061410706320000e-3 3.138910687330000e-3 3.218372589700000e-3 3.299846079700000e-3
3.383382080920000e-3 3.469032806070000e-3 3.556851789660000e-3 3.646893921410000e-3
3.739215480570000e-3 3.833874171120000e-3 3.930929157840001e-3 4.030441103240000e-3
4.132472205540000e-3 4.237086237490001e-3 4.344348586260000e-3 4.454326294319999e-3
4.567088101320000e-3 4.682704487050000e-3 4.801247715520000e-3 4.922791880100000e-3
5.047412949869999e-3 5.175188817030000e-3 5.306199345670000e-3 5.440526421630000e-3
5.578254003709999e-3 5.719468176129999e-3 5.864257202339999e-3 6.012711580210000e-3
6.164924098540001e-3 6.320989895119999e-3 6.481006516150000e-3 6.645073977219999e-3
6.813294825850001e-3 6.985774205540000e-3 7.162619921499999e-3 7.343942508090000e-3
7.529855297810000e-3 7.720474492200000e-3 7.915919234480000e-3 8.116311683959999e-3
8.321777092450001e-3 8.532443882520001e-3 8.748443727779998e-3 8.969911635150002e-3
9.196986029289999e-3 9.429808839080000e-3 9.668525586359999e-3 9.913285476869998e-3
1.016424149350000e-2 1.042155049200000e-2 1.068537329870000e-2 1.095587481160000e-2
1.123322410290000e-2 1.151759452500000e-2 1.180916381850000e-2 1.210811422390000e-2
1.241463259480000e-2 1.272891051520000e-2 1.305114441900000e-2 1.338153571300000e-2
1.372029090240000e-2 1.406762172020000e-2 1.442374525950000e-2 1.478888410920000e-2
1.516326649280000e-2 1.554712641160000e-2 1.594070379050000e-2 1.634424462820000e-2
1.675800115090000e-2 1.718223196980000e-2 1.761720224300000e-2 1.806318384110000e-2
1.852045551700000e-2 1.898930308060000e-2 1.947001957680000e-2 1.996290546900000e-2
2.046826882690000e-2 2.098642551920000e-2 2.151769941060000e-2 2.206242256460000e-2
2.262093545090000e-2 2.319358715820000e-2 2.378073561250000e-2 2.438274780070000e-2
2.500000000000000e-2 2.563287801310000e-2 2.628177740940000e-2 2.694710377210000e-2
2.762927295190000e-2 2.832871132670000e-2 2.904585606820000e-2 2.978115541530000e-2
3.053506895400000e-2 3.130806790480000e-2 3.210063541719999e-2 3.291326687170000e-2
3.374647018940000e-2 3.460076614950000e-2 3.547668871480000e-2 3.637478536550000e-2
3.729561744100000e-2 3.823976049160000e-2 3.920780463730000e-2 4.020035493710000e-2
4.121803176750000e-2 4.226147120950000e-2 4.333132544670000e-2 4.442826317290000e-2
4.555297000980000e-2 4.670614893580000e-2 4.788852072530000e-2 4.910082439920000e-2
5.034381768679999e-2 5.161827749920000e-2 5.292500041530000e-2 5.426480317960001e-2
5.563852321230000e-2 5.704701913319999e-2 5.849117129810000e-2 5.997188234920000e-2
6.149007777890000e-2 6.304670650900000e-2 6.464274148290000e-2 6.627918027460000e-2
6.795704571150001e-2 6.967738651410000e-2 7.144127795160000e-2 7.324982251330001e-2
7.510415059870001e-2 7.700542122300000e-2 7.895482274220001e-2 8.095357359590000e-2
8.300292306839999e-2 8.510415206979999e-2 8.725857393649999e-2 8.946753525249999e-2
9.173241669050000e-2 9.405463387500001e-2 9.643563826739999e-2 9.887691807300001e-2
1.013799991710000e-1 1.039464460690000e-1 1.065778628790000e-1 1.092758943230000e-1
1.120422267580000e-1 1.148785892330000e-1 1.177867545650000e-1 1.207685404530000e-1
1.238258106100000e-1 1.269604759300000e-1 1.301744956790000e-1 1.334698787270000e-1
1.368486847930000e-1 1.403130257420000e-1 1.438650669000000e-1 1.475070284080000e-1
1.512411866100000e-1 1.550698754780000e-1 1.589954880650000e-1 1.630204780080000e-1
1.671473610570000e-1 1.713787166470000e-1 1.757171895150000e-1 1.801654913460000e-1
1.847264024730000e-1 1.894027736160000e-1 1.941975276580000e-1 1.991136614760000e-1
2.041542478140000e-1 2.093224372030000e-1 2.146214599290000e-1 2.200546280550000e-1
2.256253374860000e-1 2.313370700980000e-1 2.371933959090000e-1 2.431979753140000e-1
2.493545613700000e-1 2.556670021450000e-1 2.621392431180000e-1 2.687753296520000e-1
2.755794095160000e-1 2.825557354820000e-1 2.897086679810000e-1 2.970426778270000e-1
3.045623490180000e-1 3.122723815900000e-1 3.201775945670000e-1 3.282829289620000e-1
3.365934508750000e-1 3.451143546520000e-1 3.538509661340000e-1 3.628087459900000e-1
3.719932931220000e-1 3.814103481710000e-1 3.910657971050000e-1 4.009656748910000e-1
4.111161692770001e-1 4.215236246520000e-1 4.321945460140000e-1 4.431356030370000e-1
4.543536342360000e-1 4.658556512470000e-1 4.776488432060000e-1 4.897405812400000e-1
5.021384230800000e-1 5.148501177800000e-1 5.278836105640000e-1 5.412470477880000e-1
5.549487820360000e-1 5.689973773380000e-1 5.834016145240000e-1 5.981704967090000e-1
6.133132549280001e-1 6.288393538950000e-1 6.447584979299999e-1 6.610806370140000e-1
6.778159730160001e-1 6.949749660670000e-1 7.125683410940001e-1 7.306070945310000e-1
7.491025011850000e-1 7.680661212880000e-1 7.875098077190001e-1 8.074457134150000e-1
8.278862989669999e-1 8.488443404060000e-1 8.703329371900001e-1 8.923655203910000e-1
9.149558610920000e-1 9.381180789900000e-1 9.618666512260001e-1 9.862164214300000e-1
1.011182609000000e0 1.036780818620000e0 1.063027050000000e0 1.089937707890000e0
1.117529612330000e0 1.145820009160000e0 1.174826580790000e0 1.204567457280000e0
1.235061227640000e0 1.266326951470000e0 1.298384170870000e0 1.331252922640000e0
1.364953750830000e0 1.399507719540000e0 1.434936426140000e0 1.471262014710000e0
1.508507189930000e0
</PP_RAB>
</PP_MESH>
<PP_LOCAL columns="4">
-9.225149699999999e0 -9.225149699999999e0 -9.225071200009999e0 -9.224988699980001e0
-9.224901700020000e0 -9.224810200020000e0 -9.224713799970001e0 -9.224612200039999e0
-9.224505199979999e0 -9.224392500000000e0 -9.224273800020001e0 -9.224148700010000e0
-9.224016800030000e0 -9.223877800000000e0 -9.223731299990000e0 -9.223576800000000e0
-9.223413999980000e0 -9.223242200020000e0 -9.223061100030000e0 -9.222870099990001e0
-9.222668499990000e0 -9.222455799990000e0 -9.222231299980001e0 -9.221994300010000e0
-9.221744100000000e0 -9.221479900000000e0 -9.221200900019999e0 -9.220906100010000e0
-9.220594700010000e0 -9.220265500000000e0 -9.219917400010001e0 -9.219549499999999e0
-9.219160300000000e0 -9.218748500009999e0 -9.218312700000000e0 -9.217851500000000e0
-9.217363100000000e0 -9.216845799990001e0 -9.216297700020000e0 -9.215716799990000e0
-9.215100899990000e0 -9.214447799989999e0 -9.213754800009999e0 -9.213019400009999e0
-9.212238599999999e0 -9.211409299990001e0 -9.210528099999999e0 -9.209591500009999e0
-9.208595600000001e0 -9.207535999990000e0 -9.206408399990000e0 -9.205207800000000e0
-9.203928900010000e0 -9.202565999999999e0 -9.201112999999999e0 -9.199563099990000e0
-9.197909200010001e0 -9.196143400000000e0 -9.194257299989999e0 -9.192241700009999e0
-9.190086700000000e0 -9.187781599999999e0 -9.185314699990000e0 -9.182673400000001e0
-9.179843999999999e0 -9.176811700000000e0 -9.173560400010000e0 -9.170072599999999e0
-9.166329499980000e0 -9.162310400020001e0 -9.157993099990000e0 -9.153353399980000e0
-9.148365100010000e0 -9.142999799980000e0 -9.137226600070001e0 -9.131012099960000e0
-9.124319899990001e0 -9.117110700000000e0 -9.109342000000000e0 -9.100967499970000e0
-9.091937099990000e0 -9.082196800020000e0 -9.071687699969999e0 -9.060346599980001e0
-9.048104899949999e0 -9.034888299970000e0 -9.020616799960001e0 -9.005204000000001e0
-8.988556900000001e0 -8.970574800040000e0 -8.951149900030000e0 -8.930165899990000e0
-8.907497999969999e0 -8.883012100009999e0 -8.856564900000000e0 -8.828002800029999e0
-8.797161600000001e0 -8.763866600009999e0 -8.727931600000000e0 -8.689158699989999e0
-8.647338700020001e0 -8.602249999990001e0 -8.553659499989999e0 -8.501322000020000e0
-8.444981499970000e0 -8.384370599990000e0 -8.319212299989999e0 -8.249221100000000e0
-8.174103799999999e0 -8.093562400000000e0 -8.007296100010000e0 -7.915004600000000e0
-7.816391600010000e0 -7.711169400000000e0 -7.599063999990000e0 -7.479821500020000e0
-7.353214600010000e0 -7.219051199990000e0 -7.077183300010000e0 -6.927516900000000e0
-6.770023300000000e0 -6.604751800000000e0 -6.431842099990000e0 -6.251538699990000e0
-6.064204700000000e0 -5.870337400000000e0 -5.670581300000000e0 -5.465742600010000e0
-5.256800700000000e0 -5.044917200010000e0 -4.831442200000000e0 -4.617915200000000e0
-4.406058900000000e0 -4.197766200000000e0 -3.995075899990000e0 -3.800136100000000e0
-3.615154099990000e0 -3.442327500000000e0 -3.283758100000000e0 -3.141343200000000e0
-3.016646400000000e0 -2.910747200000000e0 -2.824073100000000e0 -2.756222400000000e0
-2.705791900000000e0 -2.670233600000000e0 -2.645779500000000e0 -2.627492299990000e0
-2.609530000000000e0 -2.585749300000000e0 -2.550826100000000e0 -2.502143800000000e0
-2.442857700000000e0 -2.382495000000000e0 -2.323668600000000e0 -2.266296500000000e0
-2.210341900000000e0 -2.155768600000000e0 -2.102542199990000e0 -2.050630400000000e0
-1.999999900000000e0 -1.950619900010000e0 -1.902458899990000e0 -1.855487000010000e0
-1.809674799990000e0 -1.764993900000000e0 -1.721416099990000e0 -1.678914100000000e0
-1.637461700000000e0 -1.597032500010000e0 -1.557601500000000e0 -1.519144300000000e0
-1.481636499990000e0 -1.445054800000000e0 -1.409376300010000e0 -1.374578500000000e0
-1.340640100000000e0 -1.307539700000000e0 -1.275256400000000e0 -1.243770100000000e0
-1.213061300000000e0 -1.183110700000000e0 -1.153899700000000e0 -1.125409700010000e0
-1.097623200000000e0 -1.070522800000000e0 -1.044091500000000e0 -1.018312800000000e0
-9.931706000000000e-1 -9.686491199990000e-1 -9.447330899990000e-1 -9.214075400010000e-1
-8.986579100020000e-1 -8.764699699990000e-1 -8.548298799970000e-1 -8.337240199969999e-1
-8.131392799979999e-1 -7.930628499980000e-1 -7.734820299990000e-1 -7.543847200010000e-1
-7.357589300010000e-1 -7.175929100010000e-1 -6.998754200020000e-1 -6.825954900020000e-1
-6.657422399980000e-1 -6.493049000010000e-1 -6.332734600010000e-1 -6.176380200000001e-1
-6.023884600000001e-1 -5.875153699990000e-1 -5.730095899989999e-1 -5.588619299990000e-1
-5.450635900010000e-1 -5.316059200010001e-1 -5.184805000000000e-1 -5.056791600000000e-1
-4.931939200000000e-1 -4.810168999990000e-1 -4.691405099990000e-1 -4.575574100000000e-1
-4.462602799990000e-1 -4.352420500000000e-1 -4.244959000000000e-1 -4.140150500000000e-1
-4.037929799990000e-1 -3.938233100000000e-1 -3.840997799990000e-1 -3.746163300010000e-1
-3.653670199990000e-1 -3.563460800000000e-1 -3.475478600000000e-1 -3.389668700000000e-1
-3.305977500000000e-1 -3.224352700000000e-1 -3.144743099990000e-1 -3.067099100000000e-1
-2.991372200000000e-1 -2.917514900000000e-1 -2.845481199990000e-1 -2.775226000000000e-1
-2.706705400000000e-1 -2.639876600010000e-1 -2.574697800000000e-1 -2.511128300000000e-1
-2.449128300000000e-1 -2.388659100000000e-1 -2.329682900000000e-1 -2.272162799990000e-1
-2.216062900000000e-1 -2.161348100000000e-1 -2.107984300000000e-1 -2.055937900000000e-1
-2.005176600000000e-1 -1.955668700000000e-1 -1.907383000010000e-1 -1.860289599990000e-1
-1.814358800010000e-1 -1.769562100000000e-1 -1.725875900010000e-1 -1.683263300000000e-1
-1.641703300000000e-1 -1.601169500000000e-1 -1.561632799990000e-1 -1.523076400000000e-1
-1.485471600000000e-1 -1.448795100000000e-1 -1.413024300000000e-1 -1.378136600000000e-1
-1.344110200000000e-1 -1.310924000000000e-1 -1.278557200000000e-1 -1.246989500000000e-1
-1.216201200000000e-1 -1.186173100000000e-1 -1.156886400000000e-1 -1.128322800000000e-1
-1.100464400000000e-1 -1.073293800000000e-1 -1.046794100000000e-1 -1.020948700000000e-1
-9.957413599980001e-2 -9.711564200000000e-2 -9.471784800009999e-2 -9.237925599990000e-2
-9.009840400030001e-2 -8.787386699999999e-2 -8.570425300020000e-2 -8.358820800010001e-2
-8.152440800000001e-2 -7.951156300020000e-2 -7.754841499999999e-2 -7.563373799980000e-2
-7.376633500010001e-2 -7.194503699990000e-2 -7.016870799990000e-2 -6.843623599999999e-2
-6.674654000009999e-2 -6.509856200000000e-2 -6.349127300000000e-2 -6.192366699990000e-2
-6.039476699980000e-2 -5.890361399990000e-2 -5.744927900000000e-2 -5.603085099979999e-2
-5.464744500000000e-2 -5.329819400010001e-2 -5.198225700000000e-2 -5.069881100010000e-2
-4.944705300000000e-2 -4.822620100000000e-2 -4.703549200010000e-2 -4.587418099990000e-2
-4.474154400000000e-2 -4.363687099990000e-2 -4.255947299990000e-2 -4.150867600000000e-2
-4.048382299990000e-2 -3.948427400010001e-2 -3.850940300010000e-2 -3.755860300010000e-2
-3.663127800000000e-2 -3.572684799990000e-2 -3.484474900009999e-2 -3.398442899999999e-2
-3.314535100010000e-2
</PP_LOCAL>
<PP_NONLOCAL>
<PP_DIJ>
6.950899738551016e-310
</PP_DIJ>
</PP_NONLOCAL>
<PP_PSWFC>
<PP_CHI.1 index="1" label="0S" l="0" occupation="1.000000000000e0" n="0" pseudo_energy="0.000000000000e0" cutoff_radius="6.950899738539e-310" ultrasoft_cutoff_radius="6.950899738539e-310">
2.913587700000000e-2 2.987275600000000e-2 3.062823400000000e-2 3.140277900000000e-2
3.219686799999999e-2 3.301099200000000e-2 3.384565200000000e-2 3.470136200000000e-2
3.557864899999999e-2 3.647805300000000e-2 3.740012600000000e-2 3.834543400000000e-2
3.931455800000000e-2 4.030809100000000e-2 4.132664100000000e-2 4.237083200000000e-2
4.344130100000000e-2 4.453870200000000e-2 4.566370300000000e-2 4.681698799999999e-2
4.799925900000001e-2 4.921123300000000e-2 5.045364500000000e-2 5.172724600000000e-2
5.303280400000000e-2 5.437110800000000e-2 5.574296199999999e-2 5.714919000000000e-2
5.859063400000000e-2 6.006815700000000e-2 6.158264000000000e-2 6.313498300000000e-2
6.472610800000000e-2 6.635695699999999e-2 6.802849100000000e-2 6.974169600000001e-2
7.149757399999999e-2 7.329715200000000e-2 7.514147900000000e-2 7.703162400000001e-2
7.896868000000000e-2 8.095376000000000e-2 8.298800300000000e-2 8.507256800000000e-2
8.720863800000000e-2 8.939741800000000e-2 9.164013700000000e-2 9.393804599999999e-2
9.629242000000000e-2 9.870455400000001e-2 1.011757700000000e-1 1.037074100000000e-1
1.063008300000000e-1 1.089574300000000e-1 1.116786100000000e-1 1.144657900000000e-1
1.173204300000000e-1 1.202439900000000e-1 1.232379600000000e-1 1.263038400000000e-1
1.294431600000000e-1 1.326574400000000e-1 1.359482400000000e-1 1.393171300000000e-1
1.427656700000000e-1 1.462954500000000e-1 1.499080500000000e-1 1.536050700000000e-1
1.573881100000000e-1 1.612587700000000e-1 1.652186200000000e-1 1.692692600000000e-1
1.734122600000000e-1 1.776491800000000e-1 1.819815500000000e-1 1.864109000000000e-1
1.909387000000000e-1 1.955664000000000e-1 2.002954200000000e-1 2.051271200000000e-1
2.100627900000000e-1 2.151037000000000e-1 2.202510000000000e-1 2.255057900000000e-1
2.308690900000000e-1 2.363417800000000e-1 2.419246800000000e-1 2.476184500000000e-1
2.534236400000000e-1 2.593406400000000e-1 2.653696800000000e-1 2.715108300000000e-1
2.777639600000000e-1 2.841287200000000e-1 2.906045700000000e-1 2.971907000000000e-1
3.038860700000000e-1 3.106893400000000e-1 3.175988900000000e-1 3.246127700000000e-1
3.317287300000000e-1 3.389441400000000e-1 3.462560000000000e-1 3.536609400000000e-1
3.611551700000000e-1 3.687344700000000e-1 3.763942100000000e-1 3.841292700000000e-1
3.919341000000000e-1 3.998026800000000e-1 4.077284900000000e-1 4.157045800000000e-1
4.237235000000000e-1 4.317773600000000e-1 4.398578500000000e-1 4.479562100000000e-1
4.560633500000000e-1 4.641698100000000e-1 4.722658600000000e-1 4.803415600000000e-1
4.883868100000000e-1 4.963914400000000e-1 5.043453000000000e-1 5.122383800000000e-1
5.200609000000000e-1 5.278034200000000e-1 5.354569700000001e-1 5.430132000000000e-1
5.504644100000000e-1 5.578037500000001e-1 5.650252600000000e-1 5.721239700000000e-1
5.790958900000000e-1 5.859380800000000e-1 5.926485500000000e-1 5.992261800000001e-1
6.056705500000001e-1 6.119816999999999e-1 6.181597900000000e-1 6.242047500000000e-1
6.301157400000000e-1 6.358907299999999e-1 6.415258600000000e-1 6.470149600000000e-1
6.523490600000001e-1 6.575161100000000e-1 6.625008400000000e-1 6.672850600000000e-1
6.718482799999999e-1 6.761688599999999e-1 6.802255000000001e-1 6.839989500000000e-1
6.874732099999999e-1 6.906352800000000e-1 6.934732700000001e-1 6.959754900000000e-1
6.981304499999999e-1 6.999269500000000e-1 7.013540500000000e-1 7.024011600000000e-1
7.030580800000000e-1 7.033150099999999e-1 7.031626700000000e-1 7.025922500000000e-1
7.015955600000000e-1 7.001649900000000e-1 6.982936300000000e-1 6.959752800000000e-1
6.932045000000000e-1 6.899766899999999e-1 6.862881000000000e-1 6.821359100000000e-1
6.775182700000000e-1 6.724343400000000e-1 6.668843400000000e-1 6.608696100000000e-1
6.543926000000000e-1 6.474569799999999e-1 6.400676199999999e-1 6.322306500000000e-1
6.239534500000000e-1 6.152447300000000e-1 6.061144800000000e-1 5.965740400000000e-1
5.866360400000000e-1 5.763144200000000e-1 5.656244400000000e-1 5.545825900000000e-1
5.432066200000000e-1 5.315154399999999e-1 5.195290900000000e-1 5.072686400000000e-1
4.947561700000000e-1 4.820146000000000e-1 4.690676700000000e-1 4.559397600000000e-1
4.426558500000001e-1 4.292413500000000e-1 4.157219800000000e-1 4.021236999999999e-1
3.884725200000000e-1 3.747944400000000e-1 3.611153100000000e-1 3.474607400000000e-1
3.338559800000000e-1 3.203258300000000e-1 3.068946100000000e-1 2.935860300000000e-1
2.804231300000000e-1 2.674282700000000e-1 2.546230500000000e-1 2.420282500000000e-1
2.296638300000000e-1 2.175488400000000e-1 2.057014200000000e-1 1.941387200000000e-1
1.828768800000000e-1 1.719309300000000e-1 1.613147700000000e-1 1.510411000000000e-1
1.411213000000000e-1 1.315654200000000e-1 1.223820800000000e-1 1.135783800000000e-1
1.051599000000000e-1 9.713059100000001e-2 8.949276000000001e-2 8.224705799999999e-2
7.539246700000001e-2 6.892631600000000e-2 6.284431499999999e-2 5.714061299999999e-2
5.180786500000000e-2 4.683732600000000e-2 4.221895700000000e-2 3.794154200000000e-2
3.399281700000000e-2 3.035961300000000e-2 2.702799900000000e-2 2.398342500000000e-2
2.121087900000000e-2 1.869502400000000e-2 1.642034800000000e-2 1.437129600000000e-2
1.253239700000000e-2 1.088838900000000e-2 9.424318399999999e-3 8.125646399999999e-3
6.978326800000001e-3 5.968881600000000e-3 5.084460400000000e-3 4.312887700000000e-3
3.642698900000000e-3 3.063164200000000e-3 2.564301900000000e-3 2.136882100000000e-3
1.772421100000000e-3 1.463167600000000e-3 1.202081200000000e-3 9.828228400000000e-4
7.996157000000002e-4 6.476021400000000e-4 5.219344900000000e-4 4.183374700000000e-4
3.333805300000000e-4 2.641229500000000e-4 2.079989300000000e-4 1.627946400000000e-4
1.266124600000000e-4 9.783668799999999e-5 7.510101300000001e-5 5.725806300000000e-5
4.335113700000001e-5 3.258829300000000e-5 2.431881400000000e-5 1.801205500000000e-5
1.323862100000000e-5 9.653780200000000e-6 6.983002000000001e-6 5.009457299999998e-6
3.563328900000000e-6 2.512782600000000e-6 0.000000000000000e0 0.000000000000000e0
0.000000000000000e0 0.000000000000000e0 0.000000000000000e0 0.000000000000000e0
0.000000000000000e0 0.000000000000000e0 0.000000000000000e0 0.000000000000000e0
0.000000000000000e0 0.000000000000000e0 0.000000000000000e0 0.000000000000000e0
0.000000000000000e0 0.000000000000000e0 0.000000000000000e0 0.000000000000000e0
0.000000000000000e0 0.000000000000000e0 0.000000000000000e0 0.000000000000000e0
0.000000000000000e0 0.000000000000000e0 0.000000000000000e0 0.000000000000000e0
0.000000000000000e0 0.000000000000000e0 0.000000000000000e0 0.000000000000000e0
0.000000000000000e0 0.000000000000000e0 0.000000000000000e0 0.000000000000000e0
0.000000000000000e0 0.000000000000000e0 0.000000000000000e0 0.000000000000000e0
0.000000000000000e0 0.000000000000000e0 0.000000000000000e0 0.000000000000000e0
0.000000000000000e0
</PP_CHI.1>
</PP_PSWFC>
<PP_RHOATOM>
8.488993285589999e-4 8.923815510359999e-4 9.380887179590001e-4 9.861345289230002e-4
1.036638309010000e-3 1.089725592820000e-3 1.145528159310000e-3 1.204184524660000e-3
1.265840264670000e-3 1.330648350670000e-3 1.398769424820000e-3 1.470372308650000e-3
1.545634470740000e-3 1.624742200060000e-3 1.707891256340000e-3 1.795287404370000e-3
1.887146632570000e-3 1.983695975840000e-3 2.085173771670000e-3 2.191830365390000e-3
2.303928864550000e-3 2.421745453380000e-3 2.545570293790000e-3 2.675707978740000e-3
2.812478300100000e-3 2.956217385150000e-3 3.107277812530000e-3 3.266029917659999e-3
3.432862392520000e-3 3.608183485380001e-3 3.792421549370000e-3 3.986026078410000e-3
4.189469056830000e-3 4.403245742300000e-3 4.627875587739999e-3 4.863904160960001e-3
5.111903087890001e-3 5.372472491310000e-3 5.646241866310000e-3 5.933871096080000e-3
6.236052420939999e-3 6.553511258140000e-3 6.887008641929999e-3 7.237341826110000e-3
7.605346541820000e-3 7.991898345069998e-3 8.397914709380000e-3 8.824356486300001e-3
9.272230149459999e-3 9.742588980340001e-3 1.023653643510000e-2 1.075522688890000e-2