<UPF version="2.0.1">
<PP_INFO>
Generated by new atomic code, or converted to UPF format
Author:
Generation date:
Pseudopotential type: NC
Element: N
Functional:  SLA  LYP  B88  BLYP
Suggested minimum cutoff for wavefunctions:  55. Ry
Suggested minimum cutoff for charge density: 220. Ry
The Pseudo was generated with a Non-Relativistic Calculation
L component and cutoff radius for Local Potential:  0   0.0000
Valence configuration:
nl pn  l   occ       Rcut    Rcut US       E pseu
2S  0  0  2.00      1.230      0.000     0.000000
2P  0  1  3.00      0.000      0.000     0.000000
Generation configuration: not available.
</PP_INFO>
<!--
END OF HUMAN READABLE SECTION
-->
<PP_HEADER generated="Generated by new atomic code, or converted to UPF format" author="" date="" comment="" element="N " pseudo_type="NC" relativistic="no" is_ultrasoft="false" is_paw="false" is_coulomb="false" has_so="false" has_wfc="false" has_gipaw="false" paw_as_gipaw="false" core_correction="false" functional=" SLA  LYP  B88  BLYP" z_valence="5.000000000000e0" total_psenergy="0.000000000000e0" wfc_cutoff="5.500000000000e1" rho_cutoff="2.200000000000e2" l_max="0" l_max_rho="0" l_local="0" mesh_size="281" number_of_wfc="2" number_of_proj="1"/>
<PP_MESH dx="5.000000000000e-2" mesh="281" xmin="-8.000000000000e0" rmax="5.763268478470e1" zmesh="7.000000000000e0">
<PP_R>
4.792323255750000e-5 5.038030923259999e-5 5.296336292269999e-5 5.567885260750000e-5
5.853356842570000e-5 6.153464865370001e-5 6.468959755530000e-5 6.800630414600001e-5
7.149306192010001e-5 7.515858958800001e-5 7.901205287829999e-5 8.306308745630000e-5
8.732182301849999e-5 9.179890862219999e-5 9.650553931339999e-5 1.014534841200000e-4
1.066551154820000e-4 1.121234401870000e-4 1.178721318950000e-4 1.239155653300000e-4
1.302688522220000e-4 1.369478790990000e-4 1.439693470070000e-4 1.513508132730000e-4
1.591107354060000e-4 1.672685172560000e-4 1.758445575250000e-4 1.848603007810000e-4
1.943382910780000e-4 2.043022283300000e-4 2.147770275680000e-4 2.257888812480000e-4
2.373653247390000e-4 2.495353051800000e-4 2.623292538610000e-4 2.757791623180000e-4
2.899186623280000e-4 3.047831100050000e-4 3.204096742120000e-4 3.368374294990000e-4
3.541074538090001e-4 3.722629312010000e-4 3.913492598240000e-4 4.114141654410000e-4
4.325078207680001e-4 4.546829709300000e-4 4.779950653529999e-4 5.025023964160001e-4
5.282662452120000e-4 5.553510347820000e-4 5.838244912090000e-4 6.137578129650000e-4
6.452258489450000e-4 6.783072856300000e-4 7.130848438440001e-4 7.496454855970001e-4
7.880806315369999e-4 8.284863895490000e-4 8.709637950739999e-4 9.156190637510001e-4
9.625638570120000e-4 1.011915561290000e-3 1.063797581560000e-3 1.118339649890000e-3
1.175678149860000e-3 1.235956457590000e-3 1.299325300240000e-3 1.365943132930000e-3
1.435976534950000e-3 1.509600626260000e-3 1.586999505460000e-3 1.668366710060000e-3
1.753905700440000e-3 1.843830368640000e-3 1.938365573170000e-3 2.037747701290000e-3
2.142225260070000e-3 2.252059497840000e-3 2.367525057390000e-3 2.488910662780000e-3
2.616519841250000e-3 2.750671682200001e-3 2.891701635110000e-3 3.039962348340000e-3
3.195824550880000e-3 3.359677979430000e-3 3.531932352910000e-3 3.713018396970000e-3
3.903388921040001e-3 4.103519950610001e-3 4.313911917470000e-3 4.535090911150000e-3
4.767609994330000e-3 5.012050585840000e-3 5.269023914460000e-3 5.539172547390000e-3
5.823171996910000e-3 6.121732409580000e-3 6.435600341940001e-3 6.765560627310001e-3
7.112438338270000e-3 7.477100849779999e-3 7.860460008060000e-3 8.263474410690000e-3
8.687151803599999e-3 9.132551600959999e-3 9.600787534249999e-3 1.009303043720000e-2
1.061051117350000e-2 1.115452371450000e-2 1.172642837480000e-2 1.232765521420000e-2
1.295970761280000e-2 1.362416603080000e-2 1.432269196040000e-2 1.505703208030000e-2
1.582902262320000e-2 1.664059396760000e-2 1.749377546470000e-2 1.839070051250000e-2
1.933361189090000e-2 2.032486736950000e-2 2.136694560320000e-2 2.246245233050000e-2
2.361412688880000e-2 2.482484906430000e-2 2.609764629320000e-2 2.743570123150000e-2
2.884235971350000e-2 3.032113911810000e-2 3.187573716410000e-2 3.351004115629999e-2
3.522813770590000e-2 3.703432294940000e-2 3.893311329060000e-2 4.092925669430000e-2
4.302774455890001e-2 4.523382419700000e-2 4.755301195690000e-2 4.999110701590000e-2
5.255420588160000e-2 5.524871763640000e-2 5.808137996289999e-2 6.105927599270000e-2
6.418985201670000e-2 6.748093610590001e-2 7.094075768450001e-2 7.457796810870000e-2
7.840166229910000e-2 8.242140148290000e-2 8.664723710180001e-2 9.108973594600000e-2
9.576000657649999e-2 1.006697271030000e-1 1.058311743830000e-1 1.112572547240000e-1
1.169615361540000e-1 1.229582823460000e-1 1.292624882910000e-1 1.358899177860000e-1
1.428571428570000e-1 1.501815851970000e-1 1.578815597250000e-1 1.659763203900000e-1
1.744861083090000e-1 1.834322023840000e-1 1.928369725110000e-1 2.027239355130000e-1
2.131178139490000e-1 2.240445979270000e-1 2.355316101000000e-1 2.476075739810000e-1
2.603026857700000e-1 2.736486898590000e-1 2.876789582100000e-1 3.024285738020000e-1
3.179344183560000e-1 3.342352645610000e-1 3.513718730220000e-1 3.693870941880000e-1
3.883259754940000e-1 4.082358740090000e-1 4.291665748490000e-1 4.511704156700000e-1
4.743024175340000e-1 4.986204224950000e-1 5.241852382310000e-1 5.510607901000000e-1
5.793142809780000e-1 6.090163593100000e-1 6.402412957630000e-1 6.730671689420000e-1
7.075760606280000e-1 7.438542610260001e-1 7.819924845320000e-1 8.220860965720000e-1
8.642353520590000e-1 9.085456460860000e-1 9.551277774680001e-1 1.004098225800000e0
1.055579442700000e0 1.109700158040000e0 1.166595701800000e0 1.226408342450000e0
1.289287642780000e0 1.355390833770000e0 1.424883207830000e0 1.497938532100000e0
1.574739482950000e0 1.655478102750000e0 1.740356280100000e0 1.829586254670000e0
1.923391147860000e0 2.022005520770000e0 2.125675960700000e0 2.234661697740000e0
2.349235253010000e0 2.469683120080000e0 2.596306481350000e0 2.729421961180000e0
2.869362417600000e0 3.016477774650000e0 3.171135897350000e0 3.333723511560000e0
3.504647171020000e0 3.684334273880000e0 3.873234131520000e0 4.071819091970000e0
4.280585721060000e0 4.500056044110000e0 4.730778851240000e0 4.973331069660000e0
5.228319206240000e0 5.496380864150000e0 5.778186337150000e0 6.074440285720000e0
6.385883499040000e0 6.713294747370000e0 7.057492729360000e0 7.419338119260000e0
7.799735719020000e0 8.199636720779999e0 8.620041085340000e0 9.062000042590000e0
9.526618720129999e0 1.001505890670000e1 1.052854195710000e1 1.106835184650000e1
1.163583838070000e1 1.223242057170000e1 1.285959018580000e1 1.351891547360000e1
1.421204509170000e1 1.494071222530000e1 1.570673892170000e1 1.651204064670000e1
1.735863107410000e1 1.824862712090000e1 1.918425424070000e1 2.016785198880000e1
2.120187987180000e1 2.228892349810000e1 2.343170104280000e1 2.463307004530000e1
2.589603455360000e1 2.722375263690000e1 2.861954428210000e1 3.008689969520000e1
3.162948802920000e1 3.325116655820000e1 3.495599032350000e1 3.674822227230000e1
3.863234391800000e1 4.061306654630000e1 4.269534299530000e1 4.488438004080001e1
4.718565141570000e1 4.960491149700001e1 5.214820969500000e1 5.482190558020001e1
5.763268478470000e1
</PP_R>
<PP_RAB>
2.396161627880000e-6 2.519015461630000e-6 2.648168146140000e-6 2.783942630379999e-6
2.926678421280000e-6 3.076732432680000e-6 3.234479877760000e-6 3.400315207300000e-6
3.574653096000000e-6 3.757929479400000e-6 3.950602643910000e-6 4.153154372810000e-6
4.366091150930000e-6 4.589945431109999e-6 4.825276965670000e-6 5.072674206019999e-6
5.332755774119999e-6 5.606172009360000e-6 5.893606594760000e-6 6.195778266480000e-6
6.513442611100000e-6 6.847393954959999e-6 7.198467350350001e-6 7.567540663630002e-6
7.955536770320000e-6 8.363425862789999e-6 8.792227876239998e-6 9.243015039040001e-6
9.716914553910000e-6 1.021511141650000e-5 1.073885137840000e-5 1.128944406240000e-5
1.186826623700000e-5 1.247676525900000e-5 1.311646269310000e-5 1.378895811590000e-5
1.449593311639999e-5 1.523915550030000e-5 1.602048371060000e-5 1.684187147490000e-5
1.770537269050000e-5 1.861314656010000e-5 1.956746299120000e-5 2.057070827210000e-5
2.162539103840000e-5 2.273414854650000e-5 2.389975326770000e-5 2.512511982080000e-5
2.641331226060000e-5 2.776755173910000e-5 2.919122456050000e-5 3.068789064819999e-5
3.226129244720001e-5 3.391536428150000e-5 3.565424219220001e-5 3.748227427990000e-5
3.940403157690000e-5 4.142431947740000e-5 4.354818975370000e-5 4.578095318750000e-5
4.812819285060000e-5 5.059577806469999e-5 5.318987907800000e-5 5.591698249450000e-5
5.878390749299999e-5 6.179782287940000e-5 6.496626501210000e-5 6.829715664670001e-5
7.179882674740000e-5 7.548003131320002e-5 7.934997527319999e-5 8.341833550280001e-5
8.769528502189999e-5 9.219151843200002e-5 9.691827865860001e-5 1.018873850640000e-4
1.071112630030000e-4 1.126029748920000e-4 1.183762528700000e-4 1.244455331390000e-4
1.308259920620000e-4 1.375335841100000e-4 1.445850817560000e-4 1.519981174170000e-4
1.597912275440000e-4 1.679838989710000e-4 1.765966176450000e-4 1.856509198480000e-4
1.951694460520000e-4 2.051759975300000e-4 2.156955958740000e-4 2.267545455580000e-4
2.383804997170000e-4 2.506025292920000e-4 2.634511957230000e-4 2.769586273690000e-4
2.911585998450001e-4 3.060866204790000e-4 3.217800170970000e-4 3.382780313650000e-4
3.556219169129999e-4 3.738550424890000e-4 3.930230004030000e-4 4.131737205350000e-4
4.343575901800000e-4 4.566275800480000e-4 4.800393767120000e-4 5.046515218600001e-4
5.305255586740000e-4 5.577261857229999e-4 5.863214187420001e-4 6.163827607100001e-4
6.479853806390001e-4 6.812083015400000e-4 7.161345980200000e-4 7.528516040130000e-4
7.914511311600001e-4 8.320296983819999e-4 8.746887732359999e-4 9.195350256269998e-4
9.666805945470001e-4 1.016243368480000e-3 1.068347280160000e-3 1.123122616530000e-3
1.180706344440000e-3 1.241242453220000e-3 1.304882314660000e-3 1.371785061580000e-3
1.442117985680000e-3 1.516056955910000e-3 1.593786858200000e-3 1.675502057810000e-3
1.761406885300000e-3 1.851716147470000e-3 1.946655664530000e-3 2.046462834720000e-3
2.151387227940000e-3 2.261691209850000e-3 2.377650597840000e-3 2.499555350790000e-3
2.627710294080000e-3 2.762435881820000e-3 2.904068998150000e-3 3.052963799630000e-3
3.209492600840000e-3 3.374046805290000e-3 3.547037884220000e-3 3.728898405440000e-3
3.920083114960000e-3 4.121070074149999e-3 4.332361855090000e-3 4.554486797300000e-3
4.788000328830000e-3 5.033486355130000e-3 5.291558719160000e-3 5.562862736220000e-3
5.848076807700000e-3 6.147914117319999e-3 6.463124414540000e-3 6.794495889289999e-3
7.142857142860000e-3 7.509079259829999e-3 7.894077986249998e-3 8.298816019490001e-3
8.724305415429999e-3 9.171610119200000e-3 9.641848625540000e-3 1.013619677570000e-2
1.065589069740000e-2 1.120222989640000e-2 1.177658050500000e-2 1.238037869910000e-2
1.301513428850000e-2 1.368243449300000e-2 1.438394791050000e-2 1.512142869010000e-2
1.589672091780000e-2 1.671176322800000e-2 1.756859365110000e-2 1.846935470940000e-2
1.941629877470000e-2 2.041179370050000e-2 2.145832874250000e-2 2.255852078350000e-2
2.371512087670000e-2 2.493102112470000e-2 2.620926191160000e-2 2.755303950500000e-2
2.896571404890000e-2 3.045081796550000e-2 3.201206478810001e-2 3.365335844710000e-2
3.537880303140000e-2 3.719271305130000e-2 3.909962422660000e-2 4.110430482860000e-2
4.321176760289999e-2 4.542728230430000e-2 4.775638887340000e-2 5.020491128990000e-2
5.277897213519999e-2 5.548500790220000e-2 5.832978508980000e-2 6.132041712270000e-2
6.446438213880000e-2 6.776954168830001e-2 7.124416039150000e-2 7.489692660519999e-2
7.873697414740000e-2 8.277390513729999e-2 8.701781400500000e-2 9.147931273330000e-2
9.616955739290001e-2 1.011002760380000e-1 1.062837980350000e-1 1.117330848870000e-1
1.174617626510000e-1 1.234841560040000e-1 1.298153240670000e-1 1.364710980590000e-1
1.434681208800000e-1 1.508238887320000e-1 1.585567948670000e-1 1.666861755780000e-1
1.752323585510000e-1 1.842167136940000e-1 1.936617065760000e-1 2.035909545980000e-1
2.140292860530000e-1 2.250028022050000e-1 2.365389425620000e-1 2.486665534830000e-1
2.614159603120000e-1 2.748190432070000e-1 2.889093168580000e-1 3.037220142860000e-1
3.192941749520000e-1 3.356647373680000e-1 3.528746364680000e-1 3.709669059630000e-1
3.899867859510000e-1 4.099818360390000e-1 4.310020542670000e-1 4.531000021290000e-1
4.763309360070000e-1 5.007529453329999e-1 5.264270978540000e-1 5.534175923230000e-1
5.817919190350000e-1 6.116210285869999e-1 6.429795092890000e-1 6.759457736780000e-1
7.106022545850000e-1 7.470356112649999e-1 7.853369460870000e-1 8.256020323370000e-1
8.679315537050000e-1 9.124313560430000e-1 9.592127120350000e-1 1.008392599440000e0
1.060093993590000e0 1.114446174900000e0 1.171585052140000e0 1.231653502260000e0
1.294801727680000e0 1.361187631850000e0 1.430977214110000e0 1.504344984760000e0
1.581474401460000e0 1.662558327910000e0 1.747799516170000e0 1.837411113610000e0
1.931617195900000e0 2.030653327310000e0 2.134767149760000e0 2.244219002040000e0
2.359282570780000e0 2.480245574850000e0 2.607410484750000e0 2.741095279010000e0
2.881634239230000e0
</PP_RAB>
</PP_MESH>
<PP_LOCAL columns="4">
-3.417777100000000e1 -3.417776900000000e1 -3.417776700000001e1 -3.417776400000001e1
-3.417776100000000e1 -3.417775800000000e1 -3.417775400000000e1 -3.417775000000001e1
-3.417774600000000e1 -3.417774100000000e1 -3.417773600000000e1 -3.417773000000000e1
-3.417772400000000e1 -3.417771600000000e1 -3.417770800000000e1 -3.417770000000000e1
-3.417769000000000e1 -3.417767900000000e1 -3.417766700000000e1 -3.417765400000000e1
-3.417764000000000e1 -3.417762400000000e1 -3.417760600000000e1 -3.417758600000000e1
-3.417756500000000e1 -3.417754100000000e1 -3.417751400000000e1 -3.417748500000000e1
-3.417745300000000e1 -3.417741700000000e1 -3.417737800000000e1 -3.417733500000000e1
-3.417728700000000e1 -3.417723300000000e1 -3.417717500000000e1 -3.417711000000000e1
-3.417703800000000e1 -3.417695900000000e1 -3.417687100000000e1 -3.417677500000000e1
-3.417666800000000e1 -3.417655000000000e1 -3.417641900000000e1 -3.417627500000000e1
-3.417611600000000e1 -3.417594000000000e1 -3.417574500000000e1 -3.417553000000000e1
-3.417529300000000e1 -3.417503100000000e1 -3.417474100000000e1 -3.417442100000001e1
-3.417406700000000e1 -3.417367700000000e1 -3.417324500000000e1 -3.417276900000001e1
-3.417224200000000e1 -3.417166100000000e1 -3.417102000000000e1 -3.417031100000000e1
-3.416952900000000e1 -3.416866600000001e1 -3.416771300000000e1 -3.416666100000000e1
-3.416550000000000e1 -3.416422000000000e1 -3.416280800000000e1 -3.416125000000001e1
-3.415953200000000e1 -3.415763900000000e1 -3.415555200000000e1 -3.415325300000000e1
-3.415072100000000e1 -3.414793200000000e1 -3.414486300000000e1 -3.414148500000000e1
-3.413777100000000e1 -3.413368800000000e1 -3.412920100000000e1 -3.412427400000000e1
-3.411886700000000e1 -3.411293500000000e1 -3.410643400000000e1 -3.409931300000000e1
-3.409151900000000e1 -3.408299600000000e1 -3.407368300000000e1 -3.406351800000000e1
-3.405243200000001e1 -3.404035500000000e1 -3.402721200000000e1 -3.401292600000000e1
-3.399741500000000e1 -3.398059400000001e1 -3.396237700000000e1 -3.394267200000000e1
-3.392138700000000e1 -3.389842500000000e1 -3.387368800000000e1 -3.384707700000000e1
-3.381849000000000e1 -3.378782500000000e1 -3.375497600000000e1 -3.371984000000000e1
-3.368231200000000e1 -3.364229000000000e1 -3.359966900000000e1 -3.355434900000001e1
-3.350623300000001e1 -3.345522600000001e1 -3.340124000000000e1 -3.334419100000000e1
-3.328400300000000e1 -3.322061000000000e1 -3.315395600000000e1 -3.308399700000000e1
-3.301070200000000e1 -3.293405800000000e1 -3.285406900000000e1 -3.277075600000000e1
-3.268416400000000e1 -3.259436200000000e1 -3.250144000000001e1 -3.240551700000001e1
-3.230673900000000e1 -3.220527800000000e1 -3.210133500000000e1 -3.199514200000000e1
-3.188695400000000e1 -3.177705700000000e1 -3.166575900000000e1 -3.155339400000000e1
-3.144031200000000e1 -3.132688100000000e1 -3.121348300000000e1 -3.110050500000000e1
-3.098833700000000e1 -3.087736700000000e1 -3.076797400000000e1 -3.066052200000000e1
-3.055535500000000e1 -3.045279000000000e1 -3.035311300000000e1 -3.025657300000000e1
-3.016337500000000e1 -3.007368100000000e1 -2.998760100000000e1 -2.990519100000000e1
-2.982645500000000e1 -2.975133400000000e1 -2.967971300000000e1 -2.961141800000000e1
-2.954620900000000e1 -2.948379000000000e1 -2.942380100000000e1 -2.936581900000000e1
-2.930936400000000e1 -2.925388900000000e1 -2.919879000000000e1 -2.914339700000000e1
-2.908697300000000e1 -2.902871700000000e1 -2.896775000000000e1 -2.890311600000000e1
-2.883377100000000e1 -2.875857100000000e1 -2.867625800000000e1 -2.858544200000000e1
-2.848458500000000e1 -2.837197200000000e1 -2.824568400000000e1 -2.810357300000000e1
-2.794322800000000e1 -2.776193900000000e1 -2.755667100000000e1 -2.732403300000000e1
-2.706026300000000e1 -2.676121500000000e1 -2.642237800000000e1 -2.603891800000000e1
-2.560575600000000e1 -2.511770800000000e1 -2.456970300000000e1 -2.395712800000000e1
-2.327646300000000e1 -2.252610100000000e1 -2.170588300000000e1 -2.081460000000000e1
-1.985043700000000e1 -1.881580000000000e1 -1.772016200000000e1 -1.658005500000000e1
-1.541870600000000e1 -1.426553000000000e1 -1.315500100000000e1 -1.212450000000000e1
-1.121078400000000e1 -1.044476100000000e1 -9.844273100000001e0 -9.405086100000000e0
-9.091654900000000e0 -8.833049100000000e0 -8.537479400000000e0 -8.153752400000000e0
-7.756150100000000e0 -7.377913000000000e0 -7.018104900000000e0 -6.675835500000000e0
-6.350254400000000e0 -6.040549900000000e0 -5.745949200000000e0 -5.465715900000000e0
-5.199149700000000e0 -4.945584100000000e0 -4.704385100000000e0 -4.474949500000000e0
-4.256703600000000e0 -4.049101700000000e0 -3.851624700000000e0 -3.663778700000000e0
-3.485094100000000e0 -3.315124100000000e0 -3.153443600000000e0 -2.999648300000000e0
-2.853353700000000e0 -2.714194000000000e0 -2.581821200000000e0 -2.455904300000000e0
-2.336128500000000e0 -2.222194100000000e0 -2.113816400000000e0 -2.010724400000000e0
-1.912660200000000e0 -1.819378600000000e0 -1.730646500000000e0 -1.646241900000000e0
-1.565953700000000e0 -1.489581200000000e0 -1.416933500000000e0 -1.347828900000000e0
-1.282094500000000e0 -1.219566000000000e0 -1.160087100000000e0 -1.103508900000000e0
-1.049690200000000e0 -9.984961799999999e-1 -9.497989500000001e-1 -9.034767100000000e-1
-8.594136300000001e-1 -8.174995400000000e-1 -7.776296200000000e-1 -7.397041700000000e-1
-7.036283800000001e-1 -6.693120200000000e-1 -6.366692900000000e-1 -6.056185600000000e-1
-5.760821900000001e-1 -5.479863300000000e-1 -5.212607200000000e-1 -4.958385400000000e-1
-4.716562100000000e-1 -4.486532600000000e-1 -4.267721900000000e-1 -4.059582600000001e-1
-3.861594400000000e-1 -3.673262200000000e-1 -3.494115100000000e-1 -3.323705100000000e-1
-3.161606100000000e-1 -3.007412800000000e-1 -2.860739500000000e-1 -2.721219600000000e-1
-2.588504200000000e-1 -2.462261300000000e-1 -2.342175400000000e-1 -2.227946200000000e-1
-2.119288000000000e-1 -2.015929100000000e-1 -1.917611000000000e-1 -1.824088100000000e-1
-1.735126200000000e-1
</PP_LOCAL>
<PP_NONLOCAL>
<PP_BETA.1 index="1" label="2S" angular_momentum="0" cutoff_radius_index="246" cutoff_radius="1.230000000000e0" ultrasoft_cutoff_radius="0.000000000000e0">
9.689795185310000e-4 1.018660161370000e-3 1.070887993480000e-3 1.125793537380000e-3
1.183514214030000e-3 1.244194366530000e-3 1.307985510410000e-3 1.375047378820000e-3
1.445547568850000e-3 1.519662407400000e-3 1.597577243480000e-3 1.679486707390000e-3
1.765595950450000e-3 1.856119920180000e-3 1.951285227200000e-3 2.051329884940000e-3
2.156503687570000e-3 2.267070005860000e-3 2.383305201240000e-3 2.505499936450000e-3
2.633959838980000e-3 2.769005858580000e-3 2.910975704600000e-3 3.060224545700000e-3
3.217125809070001e-3 3.382071285160000e-3 3.555473965190000e-3 3.737766981149999e-3
3.929406361850001e-3 4.130871456980000e-3 4.342665785100000e-3 4.565319369110000e-3
4.799388309879999e-3 5.045457927890000e-3 5.304144395830001e-3 5.576093572620000e-3
5.861986117890000e-3 6.162536459820000e-3 6.478496590139999e-3 6.810656771250000e-3
7.159846262020000e-3 7.526939853450000e-3 7.912854153040000e-3 8.318554861490000e-3
8.745056917670000e-3 9.193425705100001e-3 9.664782469680000e-3 1.016030665130000e-2
1.068123679000000e-2 1.122887620360000e-2 1.180459266150000e-2 1.240982808320000e-2
1.304609328280000e-2 1.371498178190000e-2 1.441816358420000e-2 1.515739973820000e-2
1.593453594820000e-2 1.675151762300000e-2 1.761038778540000e-2 1.851329158280000e-2
1.946248917830000e-2 2.046035413400000e-2 2.150937947730000e-2 2.261219014040000e-2
2.377154218360000e-2 2.499033697940000e-2 2.627162231930000e-2 2.761859792390000e-2
2.903463631510000e-2 3.052327678420000e-2 3.208824218870000e-2 3.373344407270000e-2
3.546300130080000e-2 3.728123169430000e-2 3.919268756780000e-2 4.120214459890001e-2
4.331463079890000e-2 4.553542755390000e-2 4.787008946890000e-2 5.032445311920000e-2
5.290465862650001e-2 5.561715202270000e-2 5.846872292410001e-2 6.146650155760001e-2
6.461797794199999e-2 6.793104218989999e-2 7.141397129520000e-2 7.507548557270000e-2
7.892472569260001e-2 8.297133770709999e-2 8.722542334740000e-2 9.169763935210000e-2
9.639915679130000e-2 1.013417350740000e-1 1.065377435710000e-1 1.120001738150000e-1
1.177426875900000e-1 1.237796505460000e-1 1.301261618800000e-1 1.367980988570000e-1
1.438121397100000e-1 1.511858569160000e-1 1.589376726850000e-1 1.670869882760000e-1
1.756541884360000e-1 1.846607211810000e-1 1.941291193000000e-1 2.040830650400000e-1
2.145474838380000e-1 2.255485579410000e-1 2.371138584960000e-1 2.492722814870000e-1
2.620543029850000e-1 2.754919360750000e-1 2.896187914320000e-1 3.044703220730000e-1
3.200836647550000e-1 3.364979960740000e-1 3.537544338200000e-1 3.718962407330000e-1
3.909688840410000e-1 4.110202510690000e-1 4.321005885330000e-1 4.542628488870000e-1
4.775627002350000e-1 5.020586052660000e-1 5.278121146880000e-1 5.548880526970001e-1
5.833544434390000e-1 6.132829705040001e-1 6.447489942640000e-1 6.778318406050000e-1
7.126148678440000e-1 7.491858764430001e-1 7.876372593620000e-1 8.280662086730000e-1
8.705749568080000e-1 9.152711717760001e-1 9.622681836630001e-1 1.011685211870000e0
1.063647767060000e0 1.118287937910000e0 1.175744780930000e0 1.236164664470000e0
1.299701468490000e0 1.366517342360000e0 1.436782712470000e0 1.510676692140000e0
1.588387919470000e0 1.670114118060000e0 1.756063072400000e0 1.846452839050000e0
1.941511324550000e0 2.041477279270000e0 2.146599639390000e0 2.257136968250000e0
2.373358097030000e0 2.495539576130000e0 2.623966235170000e0 2.758927041860000e0
2.900714129890000e0 3.049617483830000e0 3.205920679840000e0 3.369893156750000e0
3.541781623550000e0 3.721798075270000e0 3.910103226400000e0 4.106787843750000e0
4.311847140380000e0 4.525147936740000e0 4.746388670060000e0 4.975049110860000e0
5.210328820510000e0 5.451068815750000e0 5.695661249360000e0 5.941936024330000e0
6.187033805580000e0 6.427250314160000e0 6.657870805940000e0 6.872983633620000e0
7.065291786050000e0 7.225934886840000e0 7.344353583330000e0 7.408227631900000e0
7.403564342460000e0 7.315000403250000e0 7.126444464670000e0 6.822174826770000e0
6.388533591530000e0 5.816330865530000e0 5.103991625820000e0 4.261306977970000e0
3.313345193550000e0 2.303674125870000e0 1.295494284810000e0 3.688470837130000e-1
-3.880557151140000e-1 -8.946303283190000e-1 -1.100256779300000e0 -1.009225804530000e0
-6.998370320290000e-1 -3.234160051260000e-1 -6.086132066000001e-2 0.000000000000000e0
0.000000000000000e0 0.000000000000000e0 0.000000000000000e0 0.000000000000000e0
0.000000000000000e0 0.000000000000000e0 0.000000000000000e0 0.000000000000000e0
0.000000000000000e0 0.000000000000000e0 0.000000000000000e0 0.000000000000000e0
0.000000000000000e0 0.000000000000000e0 0.000000000000000e0 0.000000000000000e0
0.000000000000000e0 0.000000000000000e0 0.000000000000000e0 0.000000000000000e0
0.000000000000000e0 0.000000000000000e0 0.000000000000000e0 0.000000000000000e0
0.000000000000000e0 0.000000000000000e0 0.000000000000000e0 0.000000000000000e0
0.000000000000000e0 0.000000000000000e0 0.000000000000000e0 0.000000000000000e0
0.000000000000000e0 0.000000000000000e0 0.000000000000000e0 0.000000000000000e0
0.000000000000000e0 0.000000000000000e0 0.000000000000000e0 0.000000000000000e0
0.000000000000000e0 0.000000000000000e0 0.000000000000000e0 0.000000000000000e0
0.000000000000000e0 0.000000000000000e0 0.000000000000000e0 0.000000000000000e0
0.000000000000000e0 0.000000000000000e0 0.000000000000000e0 0.000000000000000e0
0.000000000000000e0 0.000000000000000e0 0.000000000000000e0 0.000000000000000e0
0.000000000000000e0 0.000000000000000e0 0.000000000000000e0 0.000000000000000e0
0.000000000000000e0 0.000000000000000e0 0.000000000000000e0 0.000000000000000e0
0.000000000000000e0 0.000000000000000e0 0.000000000000000e0 0.000000000000000e0
0.000000000000000e0 0.000000000000000e0 0.000000000000000e0 0.000000000000000e0
0.000000000000000e0 0.000000000000000e0 0.000000000000000e0 0.000000000000000e0
0.000000000000000e0
</PP_BETA.1>
<PP_DIJ>
6.925253417980000e-1
</PP_DIJ>
</PP_NONLOCAL>
<PP_PSWFC>
<PP_CHI.1 index="1" label="2S" l="0" occupation="2.000000000000e0" n="0" pseudo_energy="0.000000000000e0" cutoff_radius="1.230000000000e0" ultrasoft_cutoff_radius="0.000000000000e0">
4.570489299999999e-5 4.804823300000000e-5 5.051171900000000e-5 5.310150999999999e-5
5.582408300000000e-5 5.868624600000000e-5 6.169515400000001e-5 6.485833300000000e-5
6.818369099999999e-5 7.167954500000000e-5 7.535463399999998e-5 7.921814899999999e-5
8.327975200000001e-5 8.754959700000001e-5 9.203836100000000e-5 9.675727000000000e-5
1.017181200000000e-4 1.069333200000000e-4 1.124159100000000e-4 1.181796000000000e-4
1.242388000000000e-4 1.306086600000000e-4 1.373051100000000e-4 1.443448900000000e-4
1.517456200000000e-4 1.595257800000000e-4 1.677048500000000e-4 1.763032600000000e-4
1.853425200000000e-4 1.948452400000000e-4 2.048351700000000e-4 2.153373000000000e-4
2.263778800000000e-4 2.379845200000000e-4 2.501862500000000e-4 2.630135800000000e-4
2.764985799999999e-4 2.906749600000000e-4 3.055781899999999e-4 3.212455300000000e-4
3.377161400000000e-4 3.550312200000000e-4 3.732340700000000e-4 3.923701899999999e-4
4.124874500000001e-4 4.336361399999999e-4 4.558691500000000e-4 4.792420700000000e-4
5.038133400000000e-4 5.296444100000000e-4 5.567998700000000e-4 5.853476300000001e-4
6.153590600000001e-4 6.469092100000001e-4 6.800769699999999e-4 7.149452800000001e-4
7.516013300000001e-4 7.901367800000001e-4 8.306479899999999e-4 8.732362600000000e-4
9.180080800000001e-4 9.650754000000001e-4 1.014555900000000e-3 1.066573400000000e-3
1.121257800000000e-3 1.178746000000000e-3 1.239181700000000e-3 1.302716000000000e-3
1.369507800000000e-3 1.439724100000000e-3 1.513540500000000e-3 1.591141500000000e-3
1.672721300000000e-3 1.758483800000000e-3 1.848643400000000e-3 1.943425700000000e-3
2.043067600000001e-3 2.147818300000000e-3 2.257939800000000e-3 2.373707400000000e-3
2.495410600000000e-3 2.623353800000000e-3 2.757856900000000e-3 2.899256200000000e-3
3.047905400000000e-3 3.204176100000000e-3 3.368459300000000e-3 3.541165700000000e-3
3.722727100000000e-3 3.913597800000001e-3 4.114255000000000e-3 4.325200600000000e-3
4.546962100000000e-3 4.780094200000001e-3 5.025179899999999e-3 5.282832200000001e-3
5.553695500000000e-3 5.838447400000001e-3 6.137800100000001e-3 6.452502500000000e-3
6.783341600000002e-3 7.131145299999999e-3 7.496783499999999e-3 7.881170999999999e-3
8.285269700000001e-3 8.710090500000000e-3 9.156696600000000e-3 9.626205500000001e-3
1.011979200000000e-2 1.063869200000000e-2 1.118420500000000e-2 1.175769500000000e-2
1.236059900000000e-2 1.299442700000000e-2 1.366076500000000e-2 1.436128400000000e-2
1.509773700000000e-2 1.587197200000000e-2 1.668592700000000e-2 1.754164500000000e-2
1.844127000000000e-2 1.938706000000000e-2 2.038138700000000e-2 2.142674900000000e-2
2.252577000000000e-2 2.368121100000000e-2 2.489597700000000e-2 2.617312400000000e-2
2.751586500000000e-2 2.892758100000000e-2 3.041183200000000e-2 3.197236000000000e-2
3.361310500000000e-2 3.533821300000000e-2 3.715204900000000e-2 3.905920800000000e-2
4.106452600000000e-2 4.317309700000000e-2 4.539028700000000e-2 4.772174700000001e-2
5.017343100000000e-2 5.275161500000001e-2 5.546291400000001e-2 5.831430399999999e-2
6.131314100000001e-2 6.446718899999999e-2 6.778464200000000e-2 7.127414999999999e-2
7.494485500000001e-2 7.880641700000001e-2 8.286905000000001e-2 8.714356400000000e-2
9.164140199999999e-2 9.637468800000001e-2 1.013562800000000e-1 1.065998100000000e-1
1.121197700000000e-1 1.179315500000000e-1 1.240515500000000e-1 1.304972000000000e-1
1.372871400000000e-1 1.444412100000000e-1 1.519806700000000e-1 1.599282400000000e-1
1.683082800000000e-1 1.771469500000000e-1 1.864723200000000e-1 1.963146300000000e-1
2.067064300000000e-1 2.176828100000000e-1 2.292816500000000e-1 2.415438100000000e-1
2.545134300000000e-1 2.682381000000000e-1 2.827691200000000e-1 2.981615600000000e-1
3.144744300000000e-1 3.317704500000000e-1 3.501158400000000e-1 3.695795500000000e-1
3.902321900000000e-1 4.121440900000001e-1 4.353825800000000e-1 4.600078600000000e-1
4.860672700000000e-1 5.135872900000001e-1 5.425629600000001e-1 5.729441000000000e-1
6.046179499999999e-1 6.373884500000000e-1 6.709528000000001e-1 7.048772100000001e-1
7.385755500000000e-1 7.712966500000000e-1 8.021283799999999e-1 8.300281600000000e-1
8.538887400000000e-1 8.726432100000000e-1 8.854017400000000e-1 8.915950799999999e-1
8.910794299999999e-1 8.841433300000000e-1 8.713694300000000e-1 8.533738500000000e-1
8.306030100000001e-1 8.034116900000001e-1 7.722413700000001e-1 7.375856400000000e-1
6.999714400000000e-1 6.599555000000001e-1 6.181110400000000e-1 5.750159000000000e-1
5.312408199999999e-1 4.873381900000000e-1 4.438315800000000e-1 4.012062700000000e-1
3.599010800000000e-1 3.203015700000000e-1 2.827349800000000e-1 2.474668400000000e-1
2.146994400000000e-1 1.845721200000000e-1 1.571633400000000e-1 1.324943400000000e-1