<UPF version="2.0.1">
  <PP_INFO>
Generated by new atomic code, or converted to UPF format
Author:
Generation date:
Pseudopotential type: US
Element: Ni
Functional:  SLA  PW   PBX  PBC
    Suggested minimum cutoff for wavefunctions:  24. Ry
    Suggested minimum cutoff for charge density: 372. Ry
    The Pseudo was generated with a Fully-Relativistic Calculation
    L component and cutoff radius for Local Potential:  0   0.0000
    Pseudopotential contains additional information for spin-orbit calculations.
    Valence configuration:
    nl pn  l   occ       Rcut    Rcut US       E pseu
    3D  3  2  4.00      2.000      2.500     0.000000
    3D  3  2  5.00      2.000      2.500     0.000000
    4S  1  0  1.00      2.400      2.600     0.000000
    Generation configuration: not available.
</PP_INFO>
  <!--
 END OF HUMAN READABLE SECTION 
-->
  <PP_HEADER generated="Generated by new atomic code, or converted to UPF format" author="" date="" comment="" element="Ni" pseudo_type="US" relativistic="full" is_ultrasoft="true" is_paw="false" is_coulomb="false" has_so="true" has_wfc="false" has_gipaw="false" paw_as_gipaw="false" core_correction="true" functional=" SLA  PW   PBX  PBC" z_valence="1.000000000000e1" total_psenergy="-9.030524855311e1" wfc_cutoff="2.355700000000e1" rho_cutoff="3.719020000000e2" l_max="2" l_max_rho="0" l_local="0" mesh_size="1195" number_of_wfc="3" number_of_proj="10"/>
  <PP_MESH dx="1.250000000000e-2" mesh="1195" xmin="-7.000000000001e0" rmax="9.877015555350e1" zmesh="2.800000000000e1">
    <PP_R>
      3.256721305550000e-5 3.297685816680000e-5 3.339165597920001e-5 3.381167130580001e-5
      3.423696977480000e-5 3.466761784000000e-5 3.510368279100000e-5 3.554523276390000e-5
      3.599233675170000e-5 3.644506461540000e-5 3.690348709460000e-5 3.736767581870000e-5
      3.783770331810000e-5 3.831364303570000e-5 3.879556933800000e-5 3.928355752690000e-5
      3.977768385160000e-5 4.027802552030001e-5 4.078466071250000e-5 4.129766859089999e-5
      4.181712931400000e-5 4.234312404860000e-5 4.287573498250000e-5 4.341504533729999e-5
      4.396113938119999e-5 4.451410244260000e-5 4.507402092300000e-5 4.564098231090000e-5
      4.621507519520001e-5 4.679638927900001e-5 4.738501539380000e-5 4.798104551370000e-5
      4.858457276959999e-5 4.919569146380000e-5 4.981449708490000e-5 5.044108632250000e-5
      5.107555708240000e-5 5.171800850209999e-5 5.236854096580000e-5 5.302725612060000e-5
      5.369425689210000e-5 5.436964750040000e-5 5.505353347670000e-5 5.574602167970001e-5
      5.644722031200001e-5 5.715723893730001e-5 5.787618849750000e-5 5.860418132980000e-5
      5.934133118479999e-5 6.008775324340000e-5 6.084356413579998e-5 6.160888195880000e-5
      6.238382629500000e-5 6.316851823099999e-5 6.396308037649999e-5 6.476763688339999e-5
      6.558231346530000e-5 6.640723741720000e-5 6.724253763500001e-5 6.808834463609999e-5
      6.894479057960000e-5 6.981200928679999e-5 7.069013626259999e-5 7.157930871600000e-5
      7.247966558200001e-5 7.339134754320002e-5 7.431449705180000e-5 7.524925835170000e-5
      7.619577750129999e-5 7.715420239620001e-5 7.812468279220001e-5 7.910737032890001e-5
      8.010241855310001e-5 8.110998294310001e-5 8.213022093299999e-5 8.316329193710001e-5
      8.420935737470002e-5 8.526858069570000e-5 8.634112740590000e-5 8.742716509290000e-5
      8.852686345239999e-5 8.964039431430001e-5 9.076793167030001e-5 9.190965170029999e-5
      9.306573280030001e-5 9.423635561039999e-5 9.542170304279999e-5 9.662196031050001e-5
      9.783731495600001e-5 9.906795688110000e-5 1.003140783760000e-4 1.015758741500000e-4
      1.028535413600000e-4 1.041472796460000e-4 1.054572911560000e-4 1.067837805830000e-4
      1.081269551920000e-4 1.094870248580000e-4 1.108642020950000e-4 1.122587020880000e-4
      1.136707427320000e-4 1.151005446620000e-4 1.165483312850000e-4 1.180143288220000e-4
      1.194987663380000e-4 1.210018757800000e-4 1.225238920110000e-4 1.240650528490000e-4
      1.256255991040000e-4 1.272057746150000e-4 1.288058262860000e-4 1.304260041300000e-4
      1.320665613030000e-4 1.337277541440000e-4 1.354098422200000e-4 1.371130883580000e-4
      1.388377586960000e-4 1.405841227150000e-4 1.423524532900000e-4 1.441430267260000e-4
      1.459561228020000e-4 1.477920248200000e-4 1.496510196420000e-4 1.515333977410000e-4
      1.534394532410000e-4 1.553694839680000e-4 1.573237914930000e-4 1.593026811810000e-4
      1.613064622360000e-4 1.633354477550000e-4 1.653899547690000e-4 1.674703043000000e-4
      1.695768214080000e-4 1.717098352380000e-4 1.738696790800000e-4 1.760566904120000e-4
      1.782712109610000e-4 1.805135867490000e-4 1.827841681530000e-4 1.850833099540000e-4
      1.874113713990000e-4 1.897687162530000e-4 1.921557128540000e-4 1.945727341760000e-4
      1.970201578840000e-4 1.994983663930000e-4 2.020077469270000e-4 2.045486915820000e-4
      2.071215973870000e-4 2.097268663630000e-4 2.123649055880000e-4 2.150361272620000e-4
      2.177409487680000e-4 2.204797927410000e-4 2.232530871300000e-4 2.260612652670000e-4
      2.289047659380000e-4 2.317840334430000e-4 2.346995176760000e-4 2.376516741860000e-4
      2.406409642530000e-4 2.436678549610000e-4 2.467328192660000e-4 2.498363360770000e-4
      2.529788903230000e-4 2.561609730360000e-4 2.593830814220000e-4 2.626457189420000e-4
      2.659493953900000e-4 2.692946269720000e-4 2.726819363880000e-4 2.761118529110000e-4
      2.795849124720001e-4 2.831016577450000e-4 2.866626382280000e-4 2.902684103319999e-4
      2.939195374650000e-4 2.976165901240000e-4 3.013601459799999e-4 3.051507899730000e-4
      3.089891143970000e-4 3.128757189990000e-4 3.168112110690000e-4 3.207962055350000e-4
      3.248313250610000e-4 3.289172001420000e-4 3.330544692050000e-4 3.372437787060000e-4
      3.414857832340000e-4 3.457811456100000e-4 3.501305369940000e-4 3.545346369860000e-4
      3.589941337370000e-4 3.635097240510000e-4 3.680821135000000e-4 3.727120165280000e-4
      3.774001565660000e-4 3.821472661470001e-4 3.869540870160000e-4 3.918213702480000e-4
      3.967498763660000e-4 4.017403754590000e-4 4.067936473040001e-4 4.119104814840000e-4
      4.170916775140000e-4 4.223380449680000e-4 4.276504036000000e-4 4.330295834780000e-4
      4.384764251100001e-4 4.439917795750000e-4 4.495765086580000e-4 4.552314849860000e-4
      4.609575921599999e-4 4.667557248950000e-4 4.726267891620000e-4 4.785717023260000e-4
      4.845913932930000e-4 4.906868026500000e-4 4.968588828190000e-4 5.031085981990000e-4
      5.094369253209999e-4 5.158448529999999e-4 5.223333824860001e-4 5.289035276250000e-4
      5.355563150169999e-4 5.422927841729999e-4 5.491139876789999e-4 5.560209913640000e-4
      5.630148744590000e-4 5.700967297740000e-4 5.772676638630000e-4 5.845287971990000e-4
      5.918812643490000e-4 5.993262141500000e-4 6.068648098920000e-4 6.144982294950001e-4
      6.222276656960000e-4 6.300543262360001e-4 6.379794340469999e-4 6.460042274420000e-4
      6.541299603120001e-4 6.623579023190000e-4 6.706893390960000e-4 6.791255724469999e-4
      6.876679205500001e-4 6.963177181639998e-4 7.050763168390001e-4 7.139450851230000e-4
      7.229254087790000e-4 7.320186910010000e-4 7.412263526320001e-4 7.505498323890000e-4
      7.599905870849999e-4 7.695500918560001e-4 7.792298403940001e-4 7.890313451810001e-4
      7.989561377199999e-4 8.090057687820000e-4 8.191818086400000e-4 8.294858473229999e-4
      8.399194948569999e-4 8.504843815219999e-4 8.611821581009998e-4 8.720144961439999e-4
      8.829830882260000e-4 8.940896482129999e-4 9.053359115259999e-4 9.167236354169999e-4
      9.282545992410002e-4 9.399306047350001e-4 9.517534762980000e-4 9.637250612790000e-4
      9.758472302600001e-4 9.881218773570000e-4 1.000550920510000e-3 1.013136301780000e-3
      1.025879987650000e-3 1.038783969360000e-3 1.051850263180000e-3 1.065080910750000e-3
      1.078477979370000e-3 1.092043562370000e-3 1.105779779400000e-3 1.119688776770000e-3
      1.133772727790000e-3 1.148033833100000e-3 1.162474321040000e-3 1.177096447950000e-3
      1.191902498580000e-3 1.206894786400000e-3 1.222075653990000e-3 1.237447473380000e-3
      1.253012646460000e-3 1.268773605310000e-3 1.284732812620000e-3 1.300892762050000e-3
      1.317255978620000e-3 1.333825019110000e-3 1.350602472480000e-3 1.367590960230000e-3
      1.384793136850000e-3 1.402211690210000e-3 1.419849342010000e-3 1.437708848150000e-3
      1.455792999230000e-3 1.474104620920000e-3 1.492646574460000e-3 1.511421757070000e-3
      1.530433102390000e-3 1.549683581010000e-3 1.569176200840000e-3 1.588914007640000e-3
      1.608900085480000e-3 1.629137557240000e-3 1.649629585060000e-3 1.670379370860000e-3
      1.691390156830000e-3 1.712665225950000e-3 1.734207902500000e-3 1.756021552560000e-3
      1.778109584570000e-3 1.800475449810000e-3 1.823122643010000e-3 1.846054702820000e-3
      1.869275212440000e-3 1.892787800120000e-3 1.916596139740000e-3 1.940703951410000e-3
      1.965115002010000e-3 1.989833105840000e-3 2.014862125130000e-3 2.040205970740000e-3
      2.065868602670000e-3 2.091854030780000e-3 2.118166315340000e-3 2.144809567690000e-3
      2.171787950900000e-3 2.199105680400000e-3 2.226767024630000e-3 2.254776305740000e-3
      2.283137900240000e-3 2.311856239680000e-3 2.340935811360001e-3 2.370381159020000e-3
      2.400196883560000e-3 2.430387643750000e-3 2.460958156950000e-3 2.491913199870000e-3
      2.523257609300000e-3 2.554996282860000e-3 2.587134179790000e-3 2.619676321700000e-3
      2.652627793370000e-3 2.685993743520000e-3 2.719779385659999e-3 2.753989998869999e-3
      2.788630928610000e-3 2.823707587610000e-3 2.859225456670000e-3 2.895190085520000e-3
      2.931607093710000e-3 2.968482171480000e-3 3.005821080620000e-3 3.043629655420000e-3
      3.081913803550000e-3 3.120679506980000e-3 3.159932822930000e-3 3.199679884820000e-3
      3.239926903190000e-3 3.280680166740000e-3 3.321946043240000e-3 3.363730980560000e-3
      3.406041507700000e-3 3.448884235750000e-3 3.492265858980001e-3 3.536193155850000e-3
      3.580672990100000e-3 3.625712311790000e-3 3.671318158400000e-3 3.717497655950000e-3
      3.764258020070000e-3 3.811606557160000e-3 3.859550665530000e-3 3.908097836540000e-3
      3.957255655800001e-3 4.007031804300000e-3 4.057434059670000e-3 4.108470297369999e-3
      4.160148491910000e-3 4.212476718120000e-3 4.265463152380001e-3 4.319116073940000e-3
      4.373443866180001e-3 4.428455017910000e-3 4.484158124760000e-3 4.540561890430000e-3
      4.597675128140001e-3 4.655506761930001e-3 4.714065828140001e-3 4.773361476720000e-3
      4.833402972740000e-3 4.894199697810000e-3 4.955761151530000e-3 5.018096953030000e-3
      5.081216842380000e-3 5.145130682190000e-3 5.209848459149999e-3 5.275380285530000e-3
      5.341736400809999e-3 5.408927173269999e-3 5.476963101600000e-3 5.545854816570000e-3
      5.615613082630000e-3 5.686248799660000e-3 5.757773004630000e-3 5.830196873359999e-3
      5.903531722200000e-3 5.977789009890000e-3 6.052980339270000e-3 6.129117459140000e-3
      6.206212266090000e-3 6.284276806330000e-3 6.363323277599999e-3 6.443364031090000e-3
      6.524411573310001e-3 6.606478568120000e-3 6.689577838640000e-3 6.773722369310001e-3
      6.858925307880000e-3 6.945199967490002e-3 7.032559828720000e-3 7.121018541730000e-3
      7.210589928380000e-3 7.301287984369999e-3 7.393126881470000e-3 7.486120969680000e-3
      7.580284779530000e-3 7.675633024290001e-3 7.772180602330002e-3 7.869942599400000e-3
      7.968934291020000e-3 8.069171144830001e-3 8.170668823040000e-3 8.273443184889999e-3
      8.377510289060000e-3 8.482886396270001e-3 8.589587971729999e-3 8.697631687780000e-3
      8.807034426490000e-3 8.917813282240001e-3 9.029985564459999e-3 9.143568800290002e-3
      9.258580737350000e-3 9.375039346489999e-3 9.492962824599999e-3 9.612369597470000e-3
      9.733278322639999e-3 9.855707892360000e-3 9.979677436479999e-3 1.010520632550000e-2
      1.023231417360000e-2 1.036102084160000e-2 1.049134644010000e-2 1.062331133290000e-2
      1.075693613970000e-2 1.089224173970000e-2 1.102924927460000e-2 1.116798015210000e-2
      1.130845604930000e-2 1.145069891570000e-2 1.159473097710000e-2 1.174057473880000e-2
      1.188825298920000e-2 1.203778880330000e-2 1.218920554650000e-2 1.234252687770000e-2
      1.249777675400000e-2 1.265497943320000e-2 1.281415947880000e-2 1.297534176280000e-2
      1.313855147040000e-2 1.330381410340000e-2 1.347115548440000e-2 1.364060176090000e-2
      1.381217940910000e-2 1.398591523850000e-2 1.416183639550000e-2 1.433997036840000e-2
      1.452034499070000e-2 1.470298844660000e-2 1.488792927420000e-2 1.507519637110000e-2
      1.526481899820000e-2 1.545682678420000e-2 1.565124973090000e-2 1.584811821720000e-2
      1.604746300420000e-2 1.624931523990000e-2 1.645370646420000e-2 1.666066861370000e-2
      1.687023402650000e-2 1.708243544760000e-2 1.729730603410000e-2 1.751487935990000e-2
      1.773518942110000e-2 1.795827064180000e-2 1.818415787880000e-2 1.841288642750000e-2
      1.864449202720000e-2 1.887901086660000e-2 1.911647959000000e-2 1.935693530210000e-2
      1.960041557480000e-2 1.984695845230000e-2 2.009660245740000e-2 2.034938659750000e-2
      2.060535037070000e-2 2.086453377180000e-2 2.112697729880000e-2 2.139272195900000e-2
      2.166180927550000e-2 2.193428129370000e-2 2.221018058800000e-2 2.248955026830000e-2
      2.277243398650000e-2 2.305887594390000e-2 2.334892089750000e-2 2.364261416750000e-2
      2.394000164410000e-2 2.424112979470000e-2 2.454604567110000e-2 2.485479691710000e-2
      2.516743177570000e-2 2.548399909670000e-2 2.580454834440000e-2 2.612912960520000e-2
      2.645779359580000e-2 2.679059167040000e-2 2.712757582950000e-2 2.746879872740000e-2
      2.781431368110000e-2 2.816417467790000e-2 2.851843638430000e-2 2.887715415430000e-2
      2.924038403850000e-2 2.960818279220000e-2 2.998060788460000e-2 3.035771750800000e-2
      3.073957058660000e-2 3.112622678560000e-2 3.151774652090000e-2 3.191419096820000e-2
      3.231562207270000e-2 3.272210255900000e-2 3.313369594030000e-2 3.355046652910000e-2
      3.397247944650000e-2 3.439980063290000e-2 3.483249685820000e-2 3.527063573190000e-2
      3.571428571430000e-2 3.616351612649999e-2 3.661839716160000e-2 3.707899989580000e-2
      3.754539629910000e-2 3.801765924710000e-2 3.849586253160000e-2 3.898008087300000e-2
      3.947038993130000e-2 3.996686631830000e-2 4.046958760950000e-2 4.097863235609999e-2
      4.149408009740000e-2 4.201601137320000e-2 4.254450773620000e-2 4.307965176500000e-2
      4.362152707710000e-2 4.417021834160001e-2 4.472581129260000e-2 4.528839274250000e-2
      4.585805059600000e-2 4.643487386320000e-2 4.701895267379999e-2 4.761037829150000e-2
      4.820924312770000e-2 4.881564075620000e-2 4.942966592790000e-2 5.005141458540000e-2
      5.068098387830000e-2 5.131847217810000e-2 5.196397909350000e-2 5.261760548640000e-2
      5.327945348720000e-2 5.394962651100000e-2 5.462822927370000e-2 5.531536780840000e-2
      5.601114948179999e-2 5.671568301130000e-2 5.742907848160000e-2 5.815144736230000e-2
      5.888290252500000e-2 5.962355826100000e-2 6.037353029930000e-2 6.113293582450000e-2
      6.190189349530000e-2 6.268052346289999e-2 6.346894738980000e-2 6.426728846890000e-2
      6.507567144249999e-2 6.589422262220000e-2 6.672306990830000e-2 6.756234280980000e-2
      6.841217246480000e-2 6.927269166089999e-2 7.014403485610000e-2 7.102633819940001e-2
      7.191973955249999e-2 7.282437851129999e-2 7.374039642740000e-2 7.466793643039999e-2
      7.560714345050000e-2 7.655816424050000e-2 7.752114739940000e-2 7.849624339529999e-2
      7.948360458900000e-2 8.048338525760000e-2 8.149574161890000e-2 8.252083185560000e-2
      8.355881614019999e-2 8.460985665980001e-2 8.567411764170000e-2 8.675176537870000e-2
      8.784296825560000e-2 8.894789677499999e-2 9.006672358419999e-2 9.119962350220000e-2
      9.234677354699999e-2 9.350835296300000e-2 9.468454324940000e-2 9.587552818830002e-2
      9.708149387350000e-2 9.830262873970000e-2 9.953912359160000e-2 1.007911716340000e-1
      1.020589685020000e-1 1.033427122920000e-1 1.046426035900000e-1 1.059588455090000e-1
      1.072916437120000e-1 1.086412064540000e-1 1.100077446040000e-1 1.113914716890000e-1
      1.127926039170000e-1 1.142113602200000e-1 1.156479622800000e-1 1.171026345690000e-1
      1.185756043830000e-1 1.200671018770000e-1 1.215773601000000e-1 1.231066150320000e-1
      1.246551056240000e-1 1.262230738290000e-1 1.278107646460000e-1 1.294184261560000e-1
      1.310463095580000e-1 1.326946692120000e-1 1.343637626790000e-1 1.360538507560000e-1
      1.377651975250000e-1 1.394980703860000e-1 1.412527401040000e-1 1.430294808510000e-1
      1.448285702440000e-1 1.466502893970000e-1 1.484949229560000e-1 1.503627591480000e-1
      1.522540898270000e-1 1.541692105180000e-1 1.561084204620000e-1 1.580720226640000e-1
      1.600603239410000e-1 1.620736349690000e-1 1.641122703320000e-1 1.661765485720000e-1
      1.682667922350000e-1 1.703833279270000e-1 1.725264863610000e-1 1.746966024090000e-1
      1.768940151570000e-1 1.791190679540000e-1 1.813721084710000e-1 1.836534887480000e-1
      1.859635652560000e-1 1.883026989500000e-1 1.906712553240000e-1 1.930696044690000e-1
      1.954981211330000e-1 1.979571847760000e-1 2.004471796320000e-1 2.029684947670000e-1
      2.055215241430000e-1 2.081066666750000e-1 2.107243262970000e-1 2.133749120240000e-1
      2.160588380150000e-1 2.187765236390000e-1 2.215283935390000e-1 2.243148777020000e-1
      2.271364115210000e-1 2.299934358670000e-1 2.328863971550000e-1 2.358157474160000e-1
      2.387819443670000e-1 2.417854514830000e-1 2.448267380680000e-1 2.479062793280000e-1
      2.510245564500000e-1 2.541820566680000e-1 2.573792733510000e-1 2.606167060680000e-1
      2.638948606760000e-1 2.672142493930000e-1 2.705753908800000e-1 2.739788103220000e-1
      2.774250395110000e-1 2.809146169270000e-1 2.844480878230000e-1 2.880260043110000e-1
      2.916489254490000e-1 2.953174173240000e-1 2.990320531470000e-1 3.027934133370000e-1
      3.066020856130000e-1 3.104586650900000e-1 3.143637543640000e-1 3.183179636140000e-1
      3.223219106940000e-1 3.263762212280000e-1 3.304815287110000e-1 3.346384746050000e-1
      3.388477084410000e-1 3.431098879220000e-1 3.474256790200000e-1 3.517957560880000e-1
      3.562208019580000e-1 3.607015080530000e-1 3.652385744930000e-1 3.698327102030000e-1
      3.744846330260000e-1 3.791950698350000e-1 3.839647566460000e-1 3.887944387300000e-1
      3.936848707370000e-1 3.986368168060000e-1 4.036510506890000e-1 4.087283558690000e-1
      4.138695256869999e-1 4.190753634600000e-1 4.243466826110000e-1 4.296843067940000e-1
      4.350890700250000e-1 4.405618168080000e-1 4.461034022720000e-1 4.517146922990000e-1
      4.573965636670000e-1 4.631499041770001e-1 4.689756128030000e-1 4.748745998230000e-1
      4.808477869640000e-1 4.868961075510000e-1 4.930205066450000e-1 4.992219411970000e-1
      5.055013801919999e-1 5.118598048060000e-1 5.182982085570000e-1 5.248175974570000e-1
      5.314189901740000e-1 5.381034181900000e-1 5.448719259590000e-1 5.517255710760000e-1
      5.586654244350000e-1 5.656925704040000e-1 5.728081069880000e-1 5.800131460040000e-1
      5.873088132530000e-1 5.946962487000000e-1 6.021766066460001e-1 6.097510559120000e-1
      6.174207800200000e-1 6.251869773820000e-1 6.330508614810000e-1 6.410136610650000e-1
      6.490766203370000e-1 6.572409991520000e-1 6.655080732110000e-1 6.738791342590000e-1
      6.823554902940000e-1 6.909384657620000e-1 6.996294017709999e-1 7.084296562980001e-1
      7.173406044000000e-1 7.263636384300000e-1 7.355001682570000e-1 7.447516214820000e-1
      7.541194436620000e-1 7.636050985400001e-1 7.732100682680000e-1 7.829358536430000e-1
      7.927839743370000e-1 8.027559691410000e-1 8.128533961970000e-1 8.230778332510001e-1
      8.334308778910000e-1 8.439141478010001e-1 8.545292810130000e-1 8.652779361650001e-1
      8.761617927540000e-1 8.871825514059999e-1 8.983419341360001e-1 9.096416846220000e-1
      9.210835684710000e-1 9.326693735019999e-1 9.444009100200001e-1 9.562800111020000e-1
      9.683085328810000e-1 9.804883548379999e-1 9.928213800949999e-1 1.005309535710000e0
      1.017954772990000e0 1.030759067770000e0 1.043724420760000e0 1.056852857810000e0
      1.070146430260000e0 1.083607215280000e0 1.097237316130000e0 1.111038862530000e0
      1.125014011030000e0 1.139164945250000e0 1.153493876310000e0 1.168003043130000e0
      1.182694712810000e0 1.197571180940000e0 1.212634772010000e0 1.227887839730000e0
      1.243332767410000e0 1.258971968380000e0 1.274807886270000e0 1.290842995490000e0
      1.307079801560000e0 1.323520841500000e0 1.340168684270000e0 1.357025931120000e0
      1.374095216040000e0 1.391379206120000e0 1.408880602040000e0 1.426602138420000e0
      1.444546584290000e0 1.462716743500000e0 1.481115455170000e0 1.499745594150000e0
      1.518610071430000e0 1.537711834620000e0 1.557053868420000e0 1.576639195050000e0
      1.596470874760000e0 1.616552006290000e0 1.636885727370000e0 1.657475215170000e0
      1.678323686840000e0 1.699434400010000e0 1.720810653250000e0 1.742455786670000e0
      1.764373182340000e0 1.786566264910000e0 1.809038502100000e0 1.831793405240000e0
      1.854834529820000e0 1.878165476060000e0 1.901789889490000e0 1.925711461460000e0
      1.949933929760000e0 1.974461079200000e0 1.999296742200000e0 2.024444799390000e0
      2.049909180190000e0 2.075693863480000e0 2.101802878160000e0 2.128240303810000e0
      2.155010271330000e0 2.182116963600000e0 2.209564616080000e0 2.237357517530000e0
      2.265500010650000e0 2.293996492750000e0 2.322851416460000e0 2.352069290440000e0
      2.381654680030000e0 2.411612208010000e0 2.441946555310000e0 2.472662461720000e0
      2.503764726670000e0 2.535258209950000e0 2.567147832490000e0 2.599438577100000e0
      2.632135489270000e0 2.665243677970000e0 2.698768316420000e0 2.732714642910000e0
      2.767087961620000e0 2.801893643450000e0 2.837137126870000e0 2.872823918730000e0
      2.908959595180000e0 2.945549802480000e0 2.982600257930000e0 3.020116750740000e0
      3.058105142940000e0 3.096571370280000e0 3.135521443210000e0 3.174961447730000e0
      3.214897546450000e0 3.255335979440000e0 3.296283065310000e0 3.337745202110000e0
      3.379728868390000e0 3.422240624180000e0 3.465287112030000e0 3.508875058050000e0
      3.553011272930000e0 3.597702653050000e0 3.642956181520000e0 3.688778929320000e0
      3.735178056330000e0 3.782160812500000e0 3.829734539000000e0 3.877906669310000e0
      3.926684730430000e0 3.976076344030000e0 4.026089227650000e0 4.076731195890000e0
      4.128010161690000e0 4.179934137460000e0 4.232511236450000e0 4.285749673940000e0
      4.339657768530000e0 4.394243943470000e0 4.449516727970000e0 4.505484758510000e0
      4.562156780220000e0 4.619541648200000e0 4.677648328960000e0 4.736485901790000e0
      4.796063560180000e0 4.856390613250000e0 4.917476487240000e0 4.979330726940000e0
      5.041962997200000e0 5.105383084430000e0 5.169600898150000e0 5.234626472530000e0
      5.300469967950000e0 5.367141672580000e0 5.434652004020000e0 5.503011510900000e0
      5.572230874510000e0 5.642320910540000e0 5.713292570690000e0 5.785156944430000e0
      5.857925260710000e0 5.931608889730000e0 6.006219344710000e0 6.081768283680000e0
      6.158267511320000e0 6.235728980780000e0 6.314164795590000e0 6.393587211490000e0
      6.474008638400000e0 6.555441642330000e0 6.637898947360000e0 6.721393437600000e0
      6.805938159240000e0 6.891546322560000e0 6.978231304020000e0 7.066006648320000e0
      7.154886070530000e0 7.244883458250000e0 7.336012873740000e0 7.428288556180000e0
      7.521724923810000e0 7.616336576270000e0 7.712138296810000e0 7.809145054650000e0
      7.907372007290000e0 8.006834502900000e0 8.107548082690000e0 8.209528483360000e0
      8.312791639560000e0 8.417353686360000e0 8.523230961810000e0 8.630440009430000e0
      8.738997580870000e0 8.848920638450000e0 8.960226357890001e0 9.072932130920000e0
      9.187055568060000e0 9.302614501330000e0 9.419626987030000e0 9.538111308620000e0
      9.658085979510000e0 9.779569745970001e0 9.902581590110000e0 1.002714073280000e1
      1.015326663660000e1 1.028097900890000e1 1.041029780520000e1 1.054124323170000e1
      1.067383574880000e1 1.080809607450000e1 1.094404518730000e1 1.108170432930000e1
      1.122109501020000e1 1.136223901000000e1 1.150515838280000e1 1.164987546000000e1
      1.179641285390000e1 1.194479346140000e1 1.209504046710000e1 1.224717734750000e1
      1.240122787420000e1 1.255721611810000e1 1.271516645250000e1 1.287510355760000e1
      1.303705242380000e1 1.320103835590000e1 1.336708697720000e1 1.353522423290000e1
      1.370547639500000e1 1.387787006570000e1 1.405243218180000e1 1.422919001910000e1
      1.440817119620000e1 1.458940367930000e1 1.477291578650000e1 1.495873619190000e1
      1.514689393020000e1 1.533741840150000e1 1.553033937560000e1 1.572568699680000e1
      1.592349178870000e1 1.612378465850000e1 1.632659690250000e1 1.653196021040000e1
      1.673990667080000e1 1.695046877570000e1 1.716367942570000e1 1.737957193570000e1
      1.759818003900000e1 1.781953789390000e1 1.804368008770000e1 1.827064164330000e1
      1.850045802390000e1 1.873316513860000e1 1.896879934850000e1 1.920739747190000e1
      1.944899679020000e1 1.969363505390000e1 1.994135048800000e1 2.019218179880000e1
      2.044616817910000e1 2.070334931470000e1 2.096376539080000e1 2.122745709790000e1
      2.149446563830000e1 2.176483273270000e1 2.203860062650000e1 2.231581209650000e1
      2.259651045760000e1 2.288073956940000e1 2.316854384320000e1 2.345996824920000e1
      2.375505832300000e1 2.405386017300000e1 2.435642048750000e1 2.466278654230000e1
      2.497300620770000e1 2.528712795610000e1 2.560520086970000e1 2.592727464800000e1
      2.625339961580000e1 2.658362673060000e1 2.691800759120000e1 2.725659444530000e1
      2.759944019770000e1 2.794659841880000e1 2.829812335270000e1 2.865406992600000e1
      2.901449375600000e1 2.937945115970000e1 2.974899916240000e1 3.012319550670000e1
      3.050209866160000e1 3.088576783160000e1 3.127426296550000e1 3.166764476670000e1
      3.206597470180000e1 3.246931501070000e1 3.287772871610001e1 3.329127963350000e1
      3.371003238110000e1 3.413405238990000e1 3.456340591370000e1 3.499816004010000e1
      3.543838270020000e1 3.588414267970000e1 3.633550962940000e1 3.679255407650000e1
      3.725534743500000e1 3.772396201740000e1 3.819847104550000e1 3.867894866250000e1
      3.916546994390000e1 3.965811090960000e1 4.015694853590000e1 4.066206076710000e1
      4.117352652800000e1 4.169142573620000e1 4.221583931440001e1 4.274684920350000e1
      4.328453837470000e1 4.382899084310000e1 4.438029168050000e1 4.493852702880001e1
      4.550378411330001e1 4.607615125670001e1 4.665571789250000e1 4.724257457910000e1
      4.783681301410001e1 4.843852604840000e1 4.904780770100000e1 4.966475317340000e1
      5.028945886450000e1 5.092202238580001e1 5.156254257670000e1 5.221111951980000e1
      5.286785455660000e1 5.353285030320000e1 5.420621066660001e1 5.488804086060000e1
      5.557844742280000e1 5.627753823040000e1 5.698542251780000e1 5.770221089350001e1
      5.842801535700000e1 5.916294931680000e1 5.990712760780000e1 6.066066650930001e1
      6.142368376340000e1 6.219629859310000e1 6.297863172100000e1 6.377080538810000e1
      6.457294337340000e1 6.538517101250000e1 6.620761521750001e1 6.704040449720001e1
      6.788366897640000e1 6.873754041700001e1 6.960215223820001e1 7.047763953720001e1
      7.136413911090000e1 7.226178947640000e1 7.317073089360000e1 7.409110538630000e1
      7.502305676500001e1 7.596673064900000e1 7.692227448910001e1 7.788983759120001e1
      7.886957113880000e1 7.986162821740000e1 8.086616383790000e1 8.188333496100000e1
      8.291330052179999e1 8.395622145450000e1 8.501226071760000e1 8.608158331940000e1
      8.716435634370001e1 8.826074897610001e1 8.937093253000000e1 9.049508047400002e1
      9.163336845840000e1 9.278597434300002e1 9.395307822500000e1 9.513486246650000e1
      9.633151172390001e1 9.754321297590002e1 9.877015555350001e1
      </PP_R>
    <PP_RAB>
      4.070901631940000e-7 4.122107270840000e-7 4.173956997400000e-7 4.226458913220000e-7
      4.279621221849999e-7 4.333452230000000e-7 4.387960348880000e-7 4.443154095490000e-7
      4.499042093969999e-7 4.555633076920000e-7 4.612935886819999e-7 4.670959477330000e-7
      4.729712914769999e-7 4.789205379469999e-7 4.849446167250000e-7 4.910444690860000e-7
      4.972210481449999e-7 5.034753190040000e-7 5.098082589059999e-7 5.162208573860001e-7
      5.227141164250000e-7 5.292890506079999e-7 5.359466872820001e-7 5.426880667160001e-7
      5.495142422649999e-7 5.564262805320000e-7 5.634252615379999e-7 5.705122788870000e-7
      5.776884399400001e-7 5.849548659870001e-7 5.923126924230000e-7 5.997630689210000e-7
      6.073071596200000e-7 6.149461432969999e-7 6.226812135609999e-7 6.305135790310000e-7
      6.384444635300000e-7 6.464751062760000e-7 6.546067620730000e-7 6.628407015080001e-7
      6.711782111510001e-7 6.796205937550002e-7 6.881691684590000e-7 6.968252709970000e-7
      7.055902539000001e-7 7.144654867160000e-7 7.234523562180000e-7 7.325522666230000e-7
      7.417666398099999e-7 7.510969155430001e-7 7.605445516980001e-7 7.701110244860000e-7
      7.797978286879999e-7 7.896064778880001e-7 7.995385047059999e-7 8.095954610419998e-7
      8.197789183160001e-7 8.300904677149997e-7 8.405317204370000e-7 8.511043079509999e-7
      8.618098822449999e-7 8.726501160860000e-7 8.836267032830001e-7 8.947413589500000e-7
      9.059958197749998e-7 9.173918442900002e-7 9.289312131470002e-7 9.406157293960000e-7
      9.524472187670000e-7 9.644275299529999e-7 9.765585349030001e-7 9.888421291110001e-7
      1.001280231910000e-6 1.013874786790000e-6 1.026627761660000e-6 1.039541149210000e-6
      1.052616967180000e-6 1.065857258700000e-6 1.079264092570000e-6 1.092839563660000e-6
      1.106585793150000e-6 1.120504928930000e-6 1.134599145880000e-6 1.148870646250000e-6